 
        ______________________________________
       |                                      |
       |           ==================         |
       |                 x T B                |
       |           ==================         |
       |               S. Grimme              |
       |        Universitaet Bonn, MCTC       |
       |         2015-18, Version 5.8.1       |
       |      Sun May  6 11:39:08 CEST 2018   |
       |______________________________________|
 
        This code comes without any warranty
        for non-commercial, academia use only.
        Preliminary GFN2 test version.
        Test license to: Dow Chemical Company
        Cite GFN-xTB work as:
        S. Grimme, C. Bannwarth, P. Shushkov
        JCTC, 13 (2017) 1989-2009
        for GFN2:
        C. Bannwarth, S. Ehlert, S. Grimme
        to be published.
        sTDA-xTB:
        S. Grimme  &  C. Bannwarth, JCP 145 (2016) 054103
        in the mass-spec context additionally:
        V. Asgeirsson, C.Bauer, S. Grimme, Chem. Sci. 8 (2017) 4879
 
        with help from
        P. Shushkov, G. Brandenburg, S. Dohm, J. Pisarek,
        F. März, M. Checinski, S. Ehrlich, S. Spicher, 
        P. Pracht, E. Caldeweyher, S. Ehlert, and C. Bannwarth.
 
        usage        :
        xtb <coord_file> [options]
        where <coord_file> is a valid file of TM)
        (*coord, Bohr) or xmol (*xyz, Angstroem)
        format.

        options:
        -chrg <int>   : molecular charge
        -uhf  <int>   : # of unpaired electrons(=2*S)
        -nox          : skip second, extended part in sTDA-xTB
        -pop          : do population analysis
                      : (default for -nox)
        -mowr <real>  : cut MO write above (def.3 Eh)
        -molden       : write formatted molden file
        -parx <file>  : read parameters for sTDA-xTB
                        calc (def:~/.param_stda2.xtb)
        -parv <file>  : read parameters for vTB part in
                        sTDA-xTB (def: ~/.param_stda1.xtb)
        -xtemp <real> : el. temp for xTB (def. 0 K)
        -etemp <real> : el. temp for GFN (def. 300 K)
        -fod          : calculate the FOD and write
                        molden.input file with
                        appropriate occupations
                        for plotting. Def. T=12500 K
 
        -gfn1         : use GFN-xTB
        -gfn2         : use GFN2-xTB
        -gfn2d3       : GFN2-xTB with D3 instead of D4
        -grad         : GFNn-xTB gradient
        -acc <real>   : GFNn-xTB accuracy (def. 1.0)
        -opt [level]  : optimize at GFNn-xTB
                      : level=crude,vloose,loose,
                      :       tight,vtight
        -hess         : compute Hessian at GFNn-xTB
        -ohess        : optimize and compute Hessian
        -omd          : optimize and do MD
        -siman        : conformational search
        -screen       : opt. loop over ensemble
        -gmd          : annealed MD for GMD procedure
        -modef        : vib mode following
        -gbsa [string1] [string2]
                        use GBSA implicit solvent
                        for solvent [string1] and
                        solvation state [string2]=
                        reference, bar1M (default=1M)
        additional GFN/opt/MD/siman options read from
        $XTBHOME/.xtbrc or $set in coordinate file
 
       spin and charge state information can be on:
       <.CHRG> (charge) and <.UHF> (=nalpha-nbeta)
       -uhf and -chrg override the file info.
       useful machine settings:
       setenv MKL_NUM_THREADS <NCORE_ON_YOUR_MACHINE>
       setenv OMP_STACKSIZE 500m
       limit stacksize unlimited
 
       total energies in Eh, gaps/HL energies in eV
       please read REVISION and HOWTO files carefully
          72  days left until this code expires
 =============================
  # OMP threads =           2
 =============================
 
 xtbhome directory:/home/ua25450/dftb/
 
 argument            1 :-ohess
 
 name of molecule           :
 comment line               :
 number of atoms            :    10
 number of electrons        :    24
 charge                     :  0
 spin                       : 0.0
 first test random number   :  0.7973
 
 
 -----------------------------------------
  G F N (Geometry, Frequency, Non-covalent)
        parametrization, gfnver=           3
     D4 dispersion model
 /home/ua25450/dftb/.param_gfn2.xtb
 -----------------------------------------
      method parameters     
 k(s)        :  1.8500
 k(p)        :  2.2300
 k(d)        :  2.2300
 k(f)        :  2.0000
 kEN (H0ij)  : -2.0000
 D3 a1       :  0.5200
 D3 a2       :  5.0000
 D3 s8       :  2.7000
 D3atm       :  5.0000
 alphaj      :  2.0000
 
     -------------------------
     ! NO SOLVENT MODEL USED !
     -------------------------
 
 doing EN charges ...
 sum q :  0.8881784D-15
 point charge moment (au)
     X       Y       Z   
   0.1096  -0.4345   0.0720  total (Debye):    1.154
 
            Z     q(EN)     CN     RAES       Cart. coordinates
     1  C   4.0   -0.13    4.04    3.69    -1.43503    -1.55332     0.98864
     2  H   1.0    0.05    1.00    1.43    -0.74602    -3.48464     0.97951
     3  H   1.0    0.04    1.00    1.43    -0.78933    -0.59499     2.69015
     4  H   1.0    0.04    1.00    1.43    -3.49129    -1.55108     1.03651
     5  C   4.0    0.15    3.06    3.02    -0.55553    -0.08569    -1.29738
     6  O   6.0   -0.16    1.12    1.80    -1.11922     2.09276    -1.63464
     7  C   4.0   -0.13    4.04    3.70     1.07548    -1.55817    -3.10925
     8  H   1.0    0.04    1.00    1.43     2.75332    -2.23132    -2.12916
     9  H   1.0    0.04    1.00    1.43     0.03555    -3.19545    -3.79222
    10  H   1.0    0.05    1.00    1.43     1.63023    -0.38121    -4.69797
 
  Z AO/shell   Hii/eV     exponent
  1     Wed Apr 25 08:07:45 CEST 2018   EN: 2.200 GM2: 0.406  GM3: 0.0800  RAES: 1.40
     1s    -10.707211    1.230000
  6     Wed Apr 25 08:07:45 CEST 2018   EN: 2.550 GM2: 0.538  GM3: 0.1500  RAES: 3.00
     2s    -13.970922    2.096432
     2p    -10.063292    1.800000
  8     Wed Apr 25 08:07:45 CEST 2018   EN: 3.440 GM2: 0.452  GM3:-0.0517  RAES: 1.80
     2s    -20.229985    2.439742
     2p    -15.503117    2.137023
 
Molecule has the following symmetry elements: (sigma) 
It seems to be the Cs point group
cs  symmetry found (for desy threshold:  0.10E+00) used in thermo
 no old-style atom pair restraing (fixing) potential
 
             =======================================
             |                                     |
             |        S C C  calculation           |
             |                                     |
             =======================================
 #proc     :            2
 Ncao      :           22
 Nao       :           22
 Nel       :           24
 T(el)     :   300.0
 intcut    :    25.0
 scfconv   :  0.100E-05
   qconv   :  0.100E-03
 intneglect:  0.100E-07
 broydamp  :      0.400
 Nshell    :           14
  q data taken from xtbrestart
  CAMM data taken from xtbrestart
 iter      E             dE          RMSdq      gap      omega  full diag
   1    -13.7060342 -0.137060E+02  0.328E-06    4.10       0.0  T
   2    -13.7060342 -0.710543E-14  0.201E-06    4.10   15731.6  T
   3    -13.7060342 -0.355271E-14  0.114E-06    4.10   27628.5  T
speedup  1.00
cpu  time for SCC    0.00 s
wall time for SCC    0.00 s

          eigenvalues
 #    :           1          2          3          4          5          6          7          8
 occ. :        2.000      2.000      2.000      2.000      2.000      2.000      2.000      2.000
 eps  :       -19.312    -17.434    -16.887    -15.545    -14.850    -14.629    -14.215    -13.230
 #    :           9         10         11         12         13         14         15         16
 occ. :        2.000      2.000      2.000      2.000      0.000      0.000      0.000      0.000
 eps  :       -13.027    -12.883    -12.805    -10.826     -6.721      2.319      3.880      4.371
 #    :          17         18         19         20         21         22
 occ. :        0.000      0.000      0.000      0.000      0.000      0.000
 eps  :         4.804      5.162      5.485      6.041      7.482     17.272
 

   #   Z            q   n(s)   n(p)   n(d)      C6AA      α(0)    relVol
   1   6 C     -0.142  1.042  3.100  0.000    23.408     6.916     0.560
   2   1 H      0.051  0.949  0.000  0.000     2.296     2.369     0.469
   3   1 H      0.073  0.927  0.000  0.000     2.042     2.235     0.442
   4   1 H      0.073  0.927  0.000  0.000     2.043     2.235     0.442
   5   6 C      0.246  1.075  2.679  0.000    22.793     7.810     0.632
   6   8 O     -0.359  1.743  4.616  0.000    20.985     6.148     1.183
   7   6 C     -0.140  1.043  3.097  0.000    23.377     6.911     0.559
   8   1 H      0.066  0.934  0.000  0.000     2.122     2.278     0.451
   9   1 H      0.066  0.934  0.000  0.000     2.122     2.278     0.451
  10   1 H      0.066  0.934  0.000  0.000     2.113     2.273     0.450

 Mol. C6AA /au*bohr^6 :        767.034462
 Mol. C8AA /au*bohr^6 :      16473.048758
 Mol. a(0) /au        :         41.451203

 
 Wiberg/Mayer (AO) data. WBOs > 0.1 written file <wbo>
 largest (>0.05) Wiberg bond orders for each atom
           total WBO             WBO to atom ...
     1  C   3.995    C    5 1.000    H    2 0.988    H    4 0.961    H    3 0.961    O    6 0.062
     2  H   0.997    C    1 0.988
     3  H   0.995    C    1 0.961
     4  H   0.995    C    1 0.961
     5  C   3.920    O    6 1.869    C    7 1.005    C    1 1.000
     6  O   2.074    C    5 1.869    C    1 0.062    C    7 0.061
     7  C   3.995    C    5 1.005    H   10 0.984    H    9 0.961    H    8 0.961    O    6 0.061
     8  H   0.996    C    7 0.961
     9  H   0.996    C    7 0.961
    10  H   0.996    C    7 0.984
 
molecular dipole:
                 x           y           z       tot (Debye)
 q only:        0.259      -1.049       0.183
   full:        1.302      -1.246       0.228       3.309
molecular quadrupole (traceless):
                xx          xy          yy          xz          yz          zz
 q only:        0.356       1.320      -1.487      -1.749       2.417       1.131
  q+dip:        0.749       1.753      -2.027      -1.775       3.041       1.278
   full:        1.101       2.018      -2.342      -1.385       3.186       1.241
 SCC converged in            3  cycles
 
SCC energy    :     -13.7060342
rep           :       0.1724582
ES            :       0.0276103
AES           :       0.0019200
AXC           :       0.0055513
disp          :      -0.0039159
XB            :       0.0000000
fix           :       0.0000000
total E       :     -13.5335745
atomizationE  :       2.5382510     1592.78
(atE without considerung molecular charge,
 total energy contains solvation terms)
H-L gap (eV)  :          4.1050
 
             =======================================
             |                                     |
             |    Approximate Normal Coordinate    |
             |   Rational Function Optimization    |
             |                                     |
             =======================================
Ref. for RF algo: F.Eckert, P.Pulay, H.-J.Werner
                  J.Comput.Chem. 18 (1997) 1473.
ANC idea implemented by S. Grimme in the 2000ers (unpublished)
restraining potential by S. Ehrlich.
dumping coords to <xtbopt.coord> and <xtbopt.log
 optlevel               1
 Maxcycle             200
 Maxmicro              20
 Econv         1.000000000000000E-006
 Gconv         8.000000000000000E-004
 Maxdispl       1.00000000000000     
 Hlow          1.000000000000000E-002
 S6             20.0000000000000     
 Nvar               24

generating ANC from read Hessian ...
 Shifting diagonal of input Hessian by   1.055397854108549E-002
 Lowest  eigenvalues of input Hessian
    0.010000   -0.000000   -0.000000   -0.000000    0.000000    0.000000
    0.000000    0.011609    0.023968    0.036221    0.053927    0.054877
    0.067661    0.087404    0.109423    0.114065    0.120860    0.121020
 Highest eigenvalues
    0.699430    0.741317    0.764464    0.800672    0.818357    1.620638
 
cpu  time for ANC gen    0.01 s
wall time for ANC gen    0.01 s
................................................................................
.............................. CYCLE    1 ......................................
................................................................................
  q data taken from xtbrestart
  CAMM data taken from xtbrestart
   1    -13.7060342 -0.137060E+02  0.258E-07    4.10       0.0  T
   2    -13.7060342  0.532907E-14  0.152E-07    4.10  100000.0  T
   3    -13.7060342 -0.710543E-14  0.803E-08    4.10  100000.0  T
speedup  1.00
cpu  time for SCC    0.00 s
wall time for SCC    0.00 s
speedup  1.00
cpu  time for grad    0.00 s
wall time for grad    0.00 s
 E :    -13.53357451  G :  0.000181    pred/act E change:  0.000D+00 -0.327D-12
Maxdispl :   0.0006   ||displ|| :   0.0009   Lambda : -0.100D-06
Largest |displ|/coords:  0.0006 (   7)  0.0004 (  15)  0.0003 (   4)
ancopt converged in          1 cycles
total energy gain (kcal):      0.0000
================
 final structure:
================
    10
        -13.53357451
C          -0.75938523219308   -0.82198419237751    0.52316718554768
H          -0.39477564695091   -1.84399125708323    0.51833364947911
H          -0.41769494752456   -0.31485352222851    1.42356728910387
H          -1.84751356020693   -0.82079843316573    0.54850001164491
C          -0.29397214570269   -0.04534478836211   -0.68654458918801
O          -0.59226742556411    1.10744271095656   -0.86501322151629
C           0.56912161290400   -0.82454674411502   -1.64534629212961
H           1.45699519826728   -1.18076287944001   -1.12670287802346
H           0.01881261635829   -1.69095892024642   -2.00675667884159
H           0.86268156061272   -0.20172828393801   -2.48605837607663
 
 Bond Distances (Angstroems)
 ---------------------------
C1-H2=1.0851         C1-H3=1.0884         C1-H4=1.0884         C1-C5=1.5110         H2-C1=1.0851         H3-C1=1.0884         
H4-C1=1.0884         C5-C1=1.5110         C5-O6=1.2041         C5-C7=1.5071         O6-C5=1.2041         C7-C5=1.5071         
C7-H8=1.0882         C7-H9=1.0882         C7-H10=1.0867        H8-C7=1.0882         H9-C7=1.0882         H10-C7=1.0867        
 C  H  Rav=1.0875 sigma=0.0012  Rmin=1.0851  Rmax=1.0884     6
 C  C  Rav=1.5091 sigma=0.0020  Rmin=1.5071  Rmax=1.5110     2
 O  C  Rav=1.2041 sigma=0.0000  Rmin=1.2041  Rmax=1.2041     1
 
 selected bond angles (degree)
 --------------------
H3-C1-H2=109.70                H4-C1-H2=109.70                H4-C1-H3=107.10                C5-C1-H2=112.15                
C5-C1-H3=109.03                C5-C1-H4=109.03                O6-C5-C1=122.31                C7-C5-C1=114.83                
C7-C5-O6=122.86                H8-C7-C5=109.47                H9-C7-C5=109.47                H9-C7-H8=108.08                
H10-C7-C5=110.52               H10-C7-H8=109.63               H10-C7-H9=109.63               
 
 selected dihedral angles (degree)
 ---------------------------------
O6-C5-C1-H2=180.02            O6-C5-C1-H3=301.71            O6-C5-C1-H4= 58.33            C7-C5-C1-H2=  0.00            
C7-C5-C1-H3=121.67            C7-C5-C1-H4=238.29            H8-C7-C5-C1=300.83            H8-C7-C5-O6=120.78            
H9-C7-C5-C1= 59.12            H9-C7-C5-O6=239.08            H10-C7-C5-C1=179.98           H10-C7-C5-O6=359.94           
 
             =======================================
             |                                     |
             |        S C C  calculation           |
             |                                     |
             =======================================
 #proc     :            2
 Ncao      :           22
 Nao       :           22
 Nel       :           24
 T(el)     :   300.0
 intcut    :    25.0
 scfconv   :  0.100E-05
   qconv   :  0.100E-03
 intneglect:  0.100E-07
 broydamp  :      0.400
 Nshell    :           14
 iter      E             dE          RMSdq      gap      omega  full diag
   1    -13.7060342 -0.137060E+02  0.209E-08    4.10       0.0  T
   2    -13.7060342  0.000000E+00  0.118E-08    4.10  100000.0  T
   3    -13.7060342  0.213163E-13  0.526E-09    4.10  100000.0  T
speedup  1.00
cpu  time for SCC    0.00 s
wall time for SCC    0.00 s

          eigenvalues
 #    :           1          2          3          4          5          6          7          8
 occ. :        2.000      2.000      2.000      2.000      2.000      2.000      2.000      2.000
 eps  :       -19.312    -17.434    -16.887    -15.545    -14.850    -14.629    -14.215    -13.230
 #    :           9         10         11         12         13         14         15         16
 occ. :        2.000      2.000      2.000      2.000      0.000      0.000      0.000      0.000
 eps  :       -13.027    -12.883    -12.805    -10.826     -6.721      2.319      3.880      4.371
 #    :          17         18         19         20         21         22
 occ. :        0.000      0.000      0.000      0.000      0.000      0.000
 eps  :         4.804      5.162      5.485      6.041      7.482     17.272
 

   #   Z            q   n(s)   n(p)   n(d)      C6AA      α(0)    relVol
   1   6 C     -0.142  1.042  3.100  0.000    23.408     6.916     0.560
   2   1 H      0.051  0.949  0.000  0.000     2.296     2.369     0.469
   3   1 H      0.073  0.927  0.000  0.000     2.042     2.235     0.442
   4   1 H      0.073  0.927  0.000  0.000     2.043     2.235     0.442
   5   6 C      0.246  1.075  2.679  0.000    22.793     7.810     0.632
   6   8 O     -0.359  1.743  4.616  0.000    20.985     6.148     1.183
   7   6 C     -0.140  1.043  3.097  0.000    23.377     6.911     0.559
   8   1 H      0.066  0.934  0.000  0.000     2.122     2.278     0.451
   9   1 H      0.066  0.934  0.000  0.000     2.122     2.278     0.451
  10   1 H      0.066  0.934  0.000  0.000     2.113     2.273     0.450

 Mol. C6AA /au*bohr^6 :        767.034463
 Mol. C8AA /au*bohr^6 :      16473.048747
 Mol. a(0) /au        :         41.451203

 
 Wiberg/Mayer (AO) data. WBOs > 0.1 written file <wbo>
 largest (>0.05) Wiberg bond orders for each atom
           total WBO             WBO to atom ...
     1  C   3.995    C    5 1.000    H    2 0.988    H    4 0.961    H    3 0.961    O    6 0.062
     2  H   0.997    C    1 0.988
     3  H   0.995    C    1 0.961
     4  H   0.995    C    1 0.961
     5  C   3.920    O    6 1.869    C    7 1.005    C    1 1.000
     6  O   2.074    C    5 1.869    C    1 0.062    C    7 0.061
     7  C   3.995    C    5 1.005    H   10 0.984    H    9 0.961    H    8 0.961    O    6 0.061
     8  H   0.996    C    7 0.961
     9  H   0.996    C    7 0.961
    10  H   0.996    C    7 0.984
 
molecular dipole:
                 x           y           z       tot (Debye)
 q only:        0.259      -1.049       0.183
   full:        0.301      -1.246       0.228       3.309
molecular quadrupole (traceless):
                xx          xy          yy          xz          yz          zz
 q only:        0.356       1.320      -1.487      -1.749       2.417       1.131
  q+dip:        0.749       1.753      -2.027      -1.775       3.041       1.278
   full:        1.101       2.018      -2.342      -1.385       3.186       1.241
 SCC converged in            3  cycles
 
SCC energy    :     -13.7060342
rep           :       0.1724582
ES            :       0.0276103
AES           :       0.0019200
AXC           :       0.0055513
disp          :      -0.0039159
XB            :       0.0000000
fix           :       0.0000000
total E       :     -13.5335745
atomizationE  :       2.5382510     1592.78
(atE without considerung molecular charge,
 total energy contains solvation terms)
H-L gap (eV)  :          4.1050
 !!!!!!!!!!!!!!!!!!!!!!!!!!!!!!!!!!!
 ! Note: the input coordinates are !
 ! NOT overwritten. The optimized  !
 ! ones are on file <xtbopt.coord> !
 ! (or on <xtbopt.xyz> if it was a !
 ! xyz file)                       !
 !!!!!!!!!!!!!!!!!!!!!!!!!!!!!!!!!!!
 
Molecule has the following symmetry elements: (sigma) 
It seems to be the Cs point group
cs  symmetry found (for desy threshold:  0.10E+00) used in thermo
  q data taken from xtbrestart
  CAMM data taken from xtbrestart
 
             =======================================
             |                                     |
             |         Numerical Hessian           |
             |                                     |
             =======================================
step length          :   0.00500
SCC accuracy         :   0.30000
Hessian scale factor :   1.00000
frozen atoms in %    :   0.00000    0
RMS gradient         :   0.00018
estimated CPU  time      0.00 min
estimated wall time      0.00 min
 
 writing file <hessian>.
 
 projected vibrational frequencies (cm-1)
eig.   :       -0.00    -0.00    -0.00    -0.00    -0.00     0.00
eig.   :     -100.40   150.74   386.54   489.32   515.48   838.37
eig.   :      867.83   953.12  1053.53  1064.69  1191.48  1364.43
eig.   :     1370.18  1451.20  1452.18  1460.62  1466.02  1776.79
eig.   :     3023.00  3026.06  3029.34  3036.33  3057.37  3063.03
 reduced masses (amu)
   1:  9.93   2: 10.76   3: 11.60   4: 12.43   5: 11.19   6: 10.86   7:  1.83   8:  1.60
   9:  8.27  10:  7.98  11: 11.29  12:  9.98  13:  2.87  14:  5.16  15:  6.46  16:  5.50
  17:  9.78  18:  3.37  19:  3.04  20:  1.74  21:  1.58  22:  1.62  23:  1.73  24: 13.35
  25:  1.95  26:  1.94  27:  1.42  28:  1.42  29:  1.79  30:  1.81
 IR intensities (amu)
   1:  0.05   2:  0.10   3:  0.22   4:  0.23   5:  0.15   6:  0.18   7:  0.10   8:  0.03
   9:  0.13  10:  0.32  11:  0.53  12:  0.28  13:  0.01  14:  0.44  15:  0.40  16:  0.13
  17:  1.49  18:  0.51  19:  0.37  20:  0.21  21:  0.08  22:  0.07  23:  0.05  24:  2.13
  25:  0.06  26:  0.11  27:  0.05  28:  0.06  29:  0.09  30:  0.18
 output can be read by thermo (or use thermo option).
 writing <g98.out> molden fake output.
 recommended (thermochemical) frequency scaling factor: 1.0
                    ==================
                    thermo calculation
                    ==================
Nvib :   23 Nimag : 1  symmetry :   cs  rot number :  1  scale factor : 1.00 sthr :  50.
omega=150.74     Gvib=    -0.794     Grot=    -0.729     Gused=    -0.793
 
   temp. (K)  partition function   enthalpy   heat capacity  entropy
                                   cal/mol     cal/K/mol   cal/K/mol   J/K/mol
 298.15  VIB   2.94                 1067.320      8.914      5.722
         ROT  0.415E+05              888.752      2.981     24.112
         INT  0.122E+06             1956.072     11.895     29.834
         TR   0.428E+27             1481.254      4.968     38.081
         TOT                        3437.3258    16.8631    67.9151   284.1557
                     Eh         kcal/mol          kJ/mol 
ZPVE            0.822137E-01     51.5899         215.851    
H(0)-H(T)+PV    0.547773E-02     3.43733         14.3817    
H(T)            0.876914E-01     55.0272         230.233    
T*S             0.322686E-01     20.2489         84.7210    
G(T)            0.554228E-01     34.7783         145.512    
    -13.47815176  <=== TOTAL FREE ENERGY in Eh incl. el.,ZPVE,RRHO,solv. parts
 
Eat (element increment corrected) /kcal :  1146.695
        -206.826  <=== HOF(298)/kcal, to be compared to exptl. data
imag cut-off (cm-1) :    5.00
 found            1  significant imaginary frequency
 writing imag mode distorted coords to <xtbhess.coord>
 for further optimization.
 
 normal mode %tage of torsion character
   1:  0.00   2:  0.00   3:  0.00   4:  0.00   5:  0.00   6:  0.00   7:  0.94   8:  0.95
   9:  0.07  10:  0.98  11:  0.03  12:  0.23  13:  0.44  14:  0.09  15:  0.64  16:  0.02
  17:  0.01  18:  0.04  19:  0.58  20:  0.61  21:  0.21  22:  0.79  23:  0.02  24:  0.00
  25:  0.06  26:  0.25  27:  0.01  28:  0.05  29:  0.02  30:  0.00
 recommended # of modes for mode following           4
 
speedup  0.96
cpu  time for all    0.37 s
wall time for all    0.39 s
