 Entering Gaussian System
 *********************************************
 Gaussian 98:
 frequency output generated by the xtb code
 *********************************************
                         Standard orientation:
 --------------------------------------------------------------------
  Center     Atomic     Atomic              Coordinates (Angstroms)
  Number     Number      Type              X           Y           Z
 --------------------------------------------------------------------
    1          6             0       -1.143753   -0.359083    0.000055
    2          6             0        0.240838   -0.359152    0.000496
    3          6             0        0.933193    0.839904   -0.000051
    4          6             0        0.240958    2.039029   -0.001039
    5          6             0       -1.143633    2.039098   -0.001481
    6          6             0       -1.835988    0.840042   -0.000933
    7          1             0       -1.684035   -1.294769    0.000482
    8          1             0        0.781026   -1.294893    0.001264
    9          1             0        2.013662    0.839850    0.000293
   10          1             0        0.781240    2.974716   -0.001465
   11          1             0       -1.683820    2.974839   -0.002256
   12          1             0       -2.916457    0.840096   -0.001276
 --------------------------------------------------------------------
     1 basis functions        1 primitive gaussians
     1 alpha electrons        1 beta electrons
 
 Harmonic frequencies (cm**-1), IR intensities (KM/Mole),
 Raman scattering activities (A**4/amu), Raman depolarization ratios,
 reduced masses (AMU), force constants (mDyne/A) and normal coordinates:
                      1                      2                      3
                        a                      a                      a 
 Frequencies --   368.3799               368.3842               579.0278
 Red. masses --    99.0000                99.0000                99.0000
 Frc consts  --    99.0000                99.0000                99.0000
 IR Inten    --    99.0000                99.0000                99.0000
 Raman Activ --     0.0000                 0.0000                 0.0000
 Depolar     --     0.0000                 0.0000                 0.0000
 Atom AN      X      Y      Z        X      Y      Z        X      Y      Z
   1   6     0.00  -0.00  -0.23     0.00  -0.00  -0.43    -0.31  -0.33   0.00
   2   6     0.00  -0.00  -0.25    -0.00   0.00   0.42    -0.31   0.33  -0.00
   3   6    -0.00   0.00   0.49    -0.00   0.00   0.01     0.00   0.21  -0.00
   4   6     0.00  -0.00  -0.23     0.00  -0.00  -0.43     0.31   0.33  -0.00
   5   6     0.00  -0.00  -0.25    -0.00   0.00   0.42     0.31  -0.33   0.00
   6   6    -0.00   0.00   0.49    -0.00   0.00   0.01    -0.00  -0.21   0.00
   7   1     0.00  -0.00  -0.15     0.00  -0.00  -0.27    -0.02  -0.13   0.00
   8   1     0.00  -0.00  -0.16    -0.00   0.00   0.27    -0.02   0.13  -0.00
   9   1    -0.00   0.00   0.31    -0.00   0.00   0.01     0.00  -0.09   0.00
  10   1     0.00  -0.00  -0.15     0.00  -0.00  -0.27     0.02   0.13  -0.00
  11   1     0.00  -0.00  -0.16    -0.00   0.00   0.27     0.02  -0.13   0.00
  12   1    -0.00   0.00   0.31    -0.00   0.00   0.01    -0.00   0.09  -0.00
                      4                      5                      6
                        a                      a                      a 
 Frequencies --   579.0819               657.5535               692.6632
 Red. masses --    99.0000                99.0000                99.0000
 Frc consts  --    99.0000                99.0000                99.0000
 IR Inten    --    99.0000                99.0000                99.0000
 Raman Activ --     0.0000                 0.0000                 0.0000
 Depolar     --     0.0000                 0.0000                 0.0000
 Atom AN      X      Y      Z        X      Y      Z        X      Y      Z
   1   6    -0.03   0.31  -0.00    -0.00   0.00   0.38    -0.00   0.00   0.11
   2   6     0.03   0.31  -0.00     0.00  -0.00  -0.38    -0.00   0.00   0.11
   3   6     0.51  -0.00   0.00    -0.00   0.00   0.38    -0.00   0.00   0.11
   4   6     0.03  -0.31   0.00     0.00  -0.00  -0.38    -0.00   0.00   0.11
   5   6    -0.03  -0.31   0.00    -0.00   0.00   0.38    -0.00   0.00   0.11
   6   6    -0.51   0.00  -0.00     0.00  -0.00  -0.38    -0.00   0.00   0.11
   7   1     0.10   0.02   0.00    -0.00   0.00   0.15     0.00  -0.00  -0.39
   8   1    -0.10   0.02  -0.00     0.00  -0.00  -0.15     0.00  -0.00  -0.39
   9   1     0.14  -0.00   0.00    -0.00   0.00   0.15     0.00  -0.00  -0.39
  10   1    -0.10  -0.02  -0.00     0.00  -0.00  -0.15     0.00  -0.00  -0.39
  11   1     0.10  -0.02   0.00    -0.00   0.00   0.15     0.00  -0.00  -0.39
  12   1    -0.14   0.00  -0.00     0.00  -0.00  -0.15     0.00  -0.00  -0.39
                      7                      8                      9
                        a                      a                      a 
 Frequencies --   882.1054               882.1075               930.5167
 Red. masses --    99.0000                99.0000                99.0000
 Frc consts  --    99.0000                99.0000                99.0000
 IR Inten    --    99.0000                99.0000                99.0000
 Raman Activ --     0.0000                 0.0000                 0.0000
 Depolar     --     0.0000                 0.0000                 0.0000
 Atom AN      X      Y      Z        X      Y      Z        X      Y      Z
   1   6    -0.00  -0.00  -0.09     0.00  -0.00  -0.25     0.00  -0.00  -0.27
   2   6    -0.00   0.00   0.17     0.00  -0.00  -0.20    -0.00   0.00   0.27
   3   6    -0.00   0.00   0.26    -0.00  -0.00   0.05    -0.00  -0.00   0.01
   4   6    -0.00   0.00   0.09    -0.00   0.00   0.25     0.00  -0.00  -0.27
   5   6     0.00  -0.00  -0.17    -0.00   0.00   0.20    -0.00   0.00   0.27
   6   6     0.00  -0.00  -0.26     0.00  -0.00  -0.05    -0.00  -0.00   0.01
   7   1    -0.00   0.00   0.17    -0.00   0.00   0.48    -0.00   0.00   0.43
   8   1     0.00  -0.00  -0.33    -0.00   0.00   0.39     0.00  -0.00  -0.41
   9   1     0.00  -0.00  -0.50     0.00  -0.00  -0.09    -0.00  -0.00  -0.01
  10   1     0.00  -0.00  -0.17     0.00  -0.00  -0.48    -0.00   0.00   0.43
  11   1    -0.00   0.00   0.33     0.00  -0.00  -0.39     0.00  -0.00  -0.41
  12   1    -0.00   0.00   0.50    -0.00   0.00   0.09    -0.00  -0.00  -0.01
                     10                     11                     12
                        a                      a                      a 
 Frequencies --   930.5197               937.0168               957.0305
 Red. masses --    99.0000                99.0000                99.0000
 Frc consts  --    99.0000                99.0000                99.0000
 IR Inten    --    99.0000                99.0000                99.0000
 Raman Activ --     0.0000                 0.0000                 0.0000
 Depolar     --     0.0000                 0.0000                 0.0000
 Atom AN      X      Y      Z        X      Y      Z        X      Y      Z
   1   6     0.00  -0.00  -0.15    -0.00   0.00   0.15    -0.20  -0.34   0.00
   2   6     0.00  -0.00  -0.16     0.00  -0.00  -0.15    -0.20   0.34  -0.00
   3   6    -0.00   0.00   0.31    -0.00   0.00   0.15     0.39  -0.00   0.00
   4   6     0.00  -0.00  -0.15     0.00  -0.00  -0.15    -0.20  -0.34   0.00
   5   6     0.00  -0.00  -0.16    -0.00   0.00   0.15    -0.20   0.34  -0.00
   6   6    -0.00   0.00   0.31     0.00  -0.00  -0.15     0.39  -0.00   0.00
   7   1    -0.00   0.00   0.23     0.00  -0.00  -0.38    -0.05  -0.09   0.00
   8   1    -0.00   0.00   0.25    -0.00   0.00   0.38    -0.05   0.09  -0.00
   9   1     0.00  -0.00  -0.49     0.00  -0.00  -0.38     0.10  -0.00   0.00
  10   1    -0.00   0.00   0.23    -0.00   0.00   0.38    -0.05  -0.09   0.00
  11   1    -0.00   0.00   0.25     0.00  -0.00  -0.38    -0.05   0.09  -0.00
  12   1     0.00  -0.00  -0.49    -0.00   0.00   0.38     0.10  -0.00   0.00
                     13                     14                     15
                        a                      a                      a 
 Frequencies --  1067.0009              1090.4876              1090.5285
 Red. masses --    99.0000                99.0000                99.0000
 Frc consts  --    99.0000                99.0000                99.0000
 IR Inten    --    99.0000                99.0000                99.0000
 Raman Activ --     0.0000                 0.0000                 0.0000
 Depolar     --     0.0000                 0.0000                 0.0000
 Atom AN      X      Y      Z        X      Y      Z        X      Y      Z
   1   6    -0.20  -0.34   0.00     0.06  -0.20   0.00     0.20   0.16  -0.00
   2   6     0.20  -0.34   0.00     0.07   0.20  -0.00    -0.20   0.18  -0.00
   3   6     0.39  -0.00   0.00    -0.29   0.00  -0.00    -0.01  -0.18   0.00
   4   6     0.20   0.34  -0.00     0.06  -0.20   0.00     0.20   0.16  -0.00
   5   6    -0.20   0.34  -0.00     0.07   0.20  -0.00    -0.20   0.18  -0.00
   6   6    -0.39   0.00  -0.00    -0.29   0.00  -0.00    -0.01  -0.18   0.00
   7   1    -0.06  -0.10   0.00     0.32  -0.24   0.00     0.24  -0.06   0.00
   8   1     0.06  -0.10   0.00     0.33   0.24  -0.00    -0.23  -0.05  -0.00
   9   1     0.12   0.00   0.00    -0.08   0.01  -0.00    -0.00  -0.46   0.00
  10   1     0.06   0.10  -0.00     0.32  -0.24   0.00     0.24  -0.06   0.00
  11   1    -0.06   0.10  -0.00     0.33   0.24  -0.00    -0.23  -0.05  -0.00
  12   1    -0.12  -0.00  -0.00    -0.08   0.01  -0.00    -0.00  -0.46   0.00
                     16                     17                     18
                        a                      a                      a 
 Frequencies --  1198.3972              1198.4030              1319.6356
 Red. masses --    99.0000                99.0000                99.0000
 Frc consts  --    99.0000                99.0000                99.0000
 IR Inten    --    99.0000                99.0000                99.0000
 Raman Activ --     0.0000                 0.0000                 0.0000
 Depolar     --     0.0000                 0.0000                 0.0000
 Atom AN      X      Y      Z        X      Y      Z        X      Y      Z
   1   6     0.05   0.01   0.00     0.12  -0.08   0.00    -0.35   0.20  -0.00
   2   6     0.10   0.03   0.00    -0.07  -0.07   0.00     0.35   0.20  -0.00
   3   6     0.01  -0.14   0.00    -0.03  -0.04   0.00    -0.00  -0.41   0.00
   4   6    -0.05  -0.01  -0.00    -0.12   0.08  -0.00    -0.35   0.20  -0.00
   5   6    -0.10  -0.03  -0.00     0.07   0.07  -0.00     0.35   0.20  -0.00
   6   6    -0.01   0.14  -0.00     0.03   0.04  -0.00    -0.00  -0.41   0.00
   7   1     0.12  -0.06   0.00     0.47  -0.27   0.00    -0.01   0.00  -0.00
   8   1     0.35   0.20  -0.00    -0.33  -0.20   0.00     0.01   0.00  -0.00
   9   1     0.00  -0.53   0.00    -0.01  -0.16   0.00    -0.00  -0.01   0.00
  10   1    -0.12   0.06  -0.00    -0.47   0.27  -0.00    -0.01   0.00  -0.00
  11   1    -0.35  -0.20   0.00     0.33   0.20  -0.00     0.01   0.00  -0.00
  12   1    -0.00   0.53  -0.00     0.01   0.16  -0.00    -0.00  -0.01   0.00
                     19                     20                     21
                        a                      a                      a 
 Frequencies --  1304.4498              1460.6747              1460.5922
 Red. masses --    99.0000                99.0000                99.0000
 Frc consts  --    99.0000                99.0000                99.0000
 IR Inten    --    99.0000                99.0000                99.0000
 Raman Activ --     0.0000                 0.0000                 0.0000
 Depolar     --     0.0000                 0.0000                 0.0000
 Atom AN      X      Y      Z        X      Y      Z        X      Y      Z
   1   6    -0.16   0.09  -0.00    -0.28  -0.11  -0.00    -0.23   0.28  -0.00
   2   6    -0.16  -0.09   0.00     0.29  -0.09   0.00    -0.21  -0.29   0.00
   3   6    -0.00  -0.19   0.00    -0.01   0.39  -0.00     0.27   0.01   0.00
   4   6     0.16  -0.09   0.00    -0.28  -0.11   0.00    -0.23   0.28  -0.00
   5   6     0.16   0.09  -0.00     0.29  -0.09   0.00    -0.21  -0.29   0.00
   6   6     0.00   0.19  -0.00    -0.01   0.39  -0.00     0.27   0.01   0.00
   7   1     0.31  -0.18   0.00     0.10  -0.14   0.00     0.27  -0.11   0.00
   8   1     0.31   0.18  -0.00    -0.11  -0.15   0.00     0.26   0.10   0.00
   9   1     0.00   0.36  -0.00    -0.00  -0.33   0.00     0.08  -0.01   0.00
  10   1    -0.31   0.18  -0.00     0.10  -0.14   0.00     0.27  -0.11   0.00
  11   1    -0.31  -0.18   0.00    -0.11  -0.15  -0.00     0.26   0.10  -0.00
  12   1    -0.00  -0.36   0.00    -0.00  -0.33   0.00     0.08  -0.01  -0.00
                     22                     23                     24
                        a                      a                      a 
 Frequencies --  1599.8869              1599.9340              1176.1417
 Red. masses --    99.0000                99.0000                99.0000
 Frc consts  --    99.0000                99.0000                99.0000
 IR Inten    --    99.0000                99.0000                99.0000
 Raman Activ --     0.0000                 0.0000                 0.0000
 Depolar     --     0.0000                 0.0000                 0.0000
 Atom AN      X      Y      Z        X      Y      Z        X      Y      Z
   1   6    -0.16   0.30  -0.00     0.43  -0.11   0.00     0.01  -0.00   0.00
   2   6    -0.10  -0.28   0.00    -0.45  -0.15  -0.00    -0.01  -0.00   0.00
   3   6    -0.01   0.52  -0.00     0.22   0.03   0.00     0.00   0.01  -0.00
   4   6     0.16  -0.30   0.00    -0.43   0.11  -0.00     0.01  -0.00   0.00
   5   6     0.10   0.28  -0.00     0.45   0.15   0.00    -0.01  -0.00   0.00
   6   6     0.01  -0.52   0.00    -0.22  -0.03  -0.00     0.00   0.01  -0.00
   7   1     0.08   0.01   0.00    -0.07   0.08  -0.00    -0.35   0.20  -0.00
   8   1     0.07  -0.02   0.00     0.08   0.08  -0.00     0.35   0.20  -0.00
   9   1    -0.00  -0.12   0.00     0.06  -0.01   0.00    -0.00  -0.41   0.00
  10   1    -0.08  -0.01  -0.00     0.07  -0.08   0.00    -0.35   0.20  -0.00
  11   1    -0.07   0.02  -0.00    -0.08  -0.08   0.00     0.35   0.20  -0.00
  12   1     0.00   0.12  -0.00    -0.06   0.01  -0.00    -0.00  -0.41   0.00
                     25                     26                     27
                        a                      a                      a 
 Frequencies --  3071.9613              3068.4506              3083.8622
 Red. masses --    99.0000                99.0000                99.0000
 Frc consts  --    99.0000                99.0000                99.0000
 IR Inten    --    99.0000                99.0000                99.0000
 Raman Activ --     0.0000                 0.0000                 0.0000
 Depolar     --     0.0000                 0.0000                 0.0000
 Atom AN      X      Y      Z        X      Y      Z        X      Y      Z
   1   6    -0.05  -0.09   0.00    -0.05  -0.09   0.00     0.05   0.08  -0.00
   2   6    -0.08   0.13  -0.00    -0.05   0.09  -0.00    -0.08   0.14  -0.00
   3   6     0.05   0.00   0.00     0.10  -0.00   0.00    -0.06  -0.00  -0.00
   4   6     0.05   0.09  -0.00    -0.05  -0.09   0.00     0.05   0.08  -0.00
   5   6     0.08  -0.13   0.00    -0.05   0.09  -0.00    -0.08   0.14  -0.00
   6   6    -0.05  -0.00  -0.00     0.10  -0.00   0.00    -0.06  -0.00  -0.00
   7   1     0.18   0.31  -0.00     0.20   0.34  -0.00    -0.17  -0.29   0.00
   8   1     0.27  -0.47   0.00     0.20  -0.34   0.00     0.27  -0.48   0.00
   9   1    -0.18  -0.00  -0.00    -0.40   0.00  -0.00     0.21   0.00   0.00
  10   1    -0.18  -0.31   0.00     0.20   0.34  -0.00    -0.17  -0.29   0.00
  11   1    -0.27   0.47  -0.00     0.20  -0.34   0.00     0.27  -0.48   0.00
  12   1     0.18   0.00   0.00    -0.40   0.00  -0.00     0.21   0.00   0.00
                     28                     29                     30
                        a                      a                      a 
 Frequencies --  3083.8760              3092.3072              3071.9651
 Red. masses --    99.0000                99.0000                99.0000
 Frc consts  --    99.0000                99.0000                99.0000
 IR Inten    --    99.0000                99.0000                99.0000
 Raman Activ --     0.0000                 0.0000                 0.0000
 Depolar     --     0.0000                 0.0000                 0.0000
 Atom AN      X      Y      Z        X      Y      Z        X      Y      Z
   1   6     0.06   0.11  -0.00    -0.06  -0.10   0.00     0.06   0.10  -0.00
   2   6     0.01  -0.02   0.00     0.06  -0.10   0.00    -0.01   0.03  -0.00
   3   6     0.15  -0.00   0.00     0.12  -0.00   0.00     0.14  -0.00   0.00
   4   6     0.06   0.11  -0.00     0.06   0.10  -0.00    -0.06  -0.10   0.00
   5   6     0.01  -0.02   0.00    -0.06   0.10  -0.00     0.01  -0.03   0.00
   6   6     0.15  -0.00   0.00    -0.12   0.00  -0.00    -0.14   0.00  -0.00
   7   1    -0.22  -0.38   0.00     0.20   0.34  -0.00    -0.21  -0.37   0.00
   8   1    -0.04   0.06  -0.00    -0.20   0.34  -0.00     0.05  -0.09   0.00
   9   1    -0.51   0.00  -0.00    -0.39   0.00  -0.00    -0.53   0.00  -0.00
  10   1    -0.22  -0.38   0.00    -0.20  -0.34   0.00     0.21   0.37  -0.00
  11   1    -0.04   0.06  -0.00     0.20  -0.34   0.00    -0.05   0.09  -0.00
  12   1    -0.51   0.00  -0.00     0.39  -0.00   0.00     0.53  -0.00   0.00
