 
        ______________________________________
       |                                      |
       |           ==================         |
       |                 x T B                |
       |           ==================         |
       |               S. Grimme              |
       |        Universitaet Bonn, MCTC       |
       |         2015-18, Version 5.8.1       |
       |      Sun May  6 11:39:08 CEST 2018   |
       |______________________________________|
 
        This code comes without any warranty
        for non-commercial, academia use only.
        Preliminary GFN2 test version.
        Test license to: Dow Chemical Company
        Cite GFN-xTB work as:
        S. Grimme, C. Bannwarth, P. Shushkov
        JCTC, 13 (2017) 1989-2009
        for GFN2:
        C. Bannwarth, S. Ehlert, S. Grimme
        to be published.
        sTDA-xTB:
        S. Grimme  &  C. Bannwarth, JCP 145 (2016) 054103
        in the mass-spec context additionally:
        V. Asgeirsson, C.Bauer, S. Grimme, Chem. Sci. 8 (2017) 4879
 
        with help from
        P. Shushkov, G. Brandenburg, S. Dohm, J. Pisarek,
        F. März, M. Checinski, S. Ehrlich, S. Spicher, 
        P. Pracht, E. Caldeweyher, S. Ehlert, and C. Bannwarth.
 
        usage        :
        xtb <coord_file> [options]
        where <coord_file> is a valid file of TM)
        (*coord, Bohr) or xmol (*xyz, Angstroem)
        format.

        options:
        -chrg <int>   : molecular charge
        -uhf  <int>   : # of unpaired electrons(=2*S)
        -nox          : skip second, extended part in sTDA-xTB
        -pop          : do population analysis
                      : (default for -nox)
        -mowr <real>  : cut MO write above (def.3 Eh)
        -molden       : write formatted molden file
        -parx <file>  : read parameters for sTDA-xTB
                        calc (def:~/.param_stda2.xtb)
        -parv <file>  : read parameters for vTB part in
                        sTDA-xTB (def: ~/.param_stda1.xtb)
        -xtemp <real> : el. temp for xTB (def. 0 K)
        -etemp <real> : el. temp for GFN (def. 300 K)
        -fod          : calculate the FOD and write
                        molden.input file with
                        appropriate occupations
                        for plotting. Def. T=12500 K
 
        -gfn1         : use GFN-xTB
        -gfn2         : use GFN2-xTB
        -gfn2d3       : GFN2-xTB with D3 instead of D4
        -grad         : GFNn-xTB gradient
        -acc <real>   : GFNn-xTB accuracy (def. 1.0)
        -opt [level]  : optimize at GFNn-xTB
                      : level=crude,vloose,loose,
                      :       tight,vtight
        -hess         : compute Hessian at GFNn-xTB
        -ohess        : optimize and compute Hessian
        -omd          : optimize and do MD
        -siman        : conformational search
        -screen       : opt. loop over ensemble
        -gmd          : annealed MD for GMD procedure
        -modef        : vib mode following
        -gbsa [string1] [string2]
                        use GBSA implicit solvent
                        for solvent [string1] and
                        solvation state [string2]=
                        reference, bar1M (default=1M)
        additional GFN/opt/MD/siman options read from
        $XTBHOME/.xtbrc or $set in coordinate file
 
       spin and charge state information can be on:
       <.CHRG> (charge) and <.UHF> (=nalpha-nbeta)
       -uhf and -chrg override the file info.
       useful machine settings:
       setenv MKL_NUM_THREADS <NCORE_ON_YOUR_MACHINE>
       setenv OMP_STACKSIZE 500m
       limit stacksize unlimited
 
       total energies in Eh, gaps/HL energies in eV
       please read REVISION and HOWTO files carefully
          72  days left until this code expires
 =============================
  # OMP threads =           2
 =============================
 
 xtbhome directory:/home/ua25450/dftb/
 
 argument            1 :-ohess
 
 name of molecule           :
 comment line               :
 number of atoms            :     5
 number of electrons        :    26
 charge                     :  0
 spin                       : 0.0
 first test random number   :  0.5590
 
 
 -----------------------------------------
  G F N (Geometry, Frequency, Non-covalent)
        parametrization, gfnver=           3
     D4 dispersion model
 /home/ua25450/dftb/.param_gfn2.xtb
 -----------------------------------------
      method parameters     
 k(s)        :  1.8500
 k(p)        :  2.2300
 k(d)        :  2.2300
 k(f)        :  2.0000
 kEN (H0ij)  : -2.0000
 D3 a1       :  0.5200
 D3 a2       :  5.0000
 D3 s8       :  2.7000
 D3atm       :  5.0000
 alphaj      :  2.0000
 
     -------------------------
     ! NO SOLVENT MODEL USED !
     -------------------------
 
 doing EN charges ...
 sum q : -0.1554312D-14
 point charge moment (au)
     X       Y       Z   
   0.0763   0.1078   0.1863  total (Debye):    0.580
 
            Z     q(EN)     CN     RAES       Cart. coordinates
     1  C   4.0    0.07    3.91    3.47    -5.43825    -0.40414    -0.02322
     2  CL  7.0   -0.04    1.52    2.66    -8.78084    -0.38236     0.01316
     3  CL  7.0   -0.04    1.52    2.66    -4.30350     1.20088    -2.72865
     4  CL  7.0   -0.04    1.52    2.66    -4.30353    -3.54838     0.01356
     5  H   1.0    0.05    1.10    1.44    -4.75000     0.56854     1.66052
 
  Z AO/shell   Hii/eV     exponent
  1     Wed Apr 25 08:07:45 CEST 2018   EN: 2.200 GM2: 0.406  GM3: 0.0800  RAES: 1.40
     1s    -10.707211    1.230000
  6     Wed Apr 25 08:07:45 CEST 2018   EN: 2.550 GM2: 0.538  GM3: 0.1500  RAES: 3.00
     2s    -13.970922    2.096432
     2p    -10.063292    1.800000
 17     Mon Apr 23 14:09:22 CEST 2018   EN: 3.160 GM2: 0.249  GM3: 0.1495  RAES: 2.50
     3s    -29.278781    2.485265
     3p    -12.673758    2.199650
     3d     -0.240338    2.476089
 
Refinement of some symmetry elements was terminated before convergence was reached.
Some symmetry elements may remain unidentified.
Molecule has the following symmetry elements: (C3) 3*(sigma) 
It seems to be the C3v point group
c3v symmetry found (for desy threshold:  0.10E+00) used in thermo
 no old-style atom pair restraing (fixing) potential
 
             =======================================
             |                                     |
             |        S C C  calculation           |
             |                                     |
             =======================================
 #proc     :            2
 Ncao      :           35
 Nao       :           32
 Nel       :           26
 T(el)     :   300.0
 intcut    :    25.0
 scfconv   :  0.100E-05
   qconv   :  0.100E-03
 intneglect:  0.100E-07
 broydamp  :      0.400
 Nshell    :           12
  q data taken from xtbrestart
  CAMM data taken from xtbrestart
 iter      E             dE          RMSdq      gap      omega  full diag
   1    -16.3120157 -0.163120E+02  0.134E-04    5.63       0.0  T
   2    -16.3120157 -0.223963E-10  0.120E-04    5.63     372.5  T
   3    -16.3120157 -0.142606E-10  0.109E-04    5.63     411.5  T
speedup  1.00
cpu  time for SCC    0.01 s
wall time for SCC    0.01 s

          eigenvalues
 #    :           1          2          3          4          5          6          7          8
 occ. :        2.000      2.000      2.000      2.000      2.000      2.000      2.000      2.000
 eps  :       -29.750    -29.622    -29.621    -18.061    -15.926    -15.420    -15.419    -12.760
 #    :           9         10         11         12         13         14         15         16
 occ. :        2.000      2.000      2.000      2.000      2.000      0.000      0.000      0.000
 eps  :       -12.760    -12.377    -12.377    -12.280    -12.251     -6.620     -5.039     -5.034
 #    :          17         18         19         20         21         22         23         24
 occ. :        0.000      0.000      0.000      0.000      0.000      0.000      0.000      0.000
 eps  :        -0.914     -0.598     -0.598     -0.542     -0.541     -0.540     -0.492     -0.488
 

   #   Z            q   n(s)   n(p)   n(d)      C6AA      α(0)    relVol
   1   6 C      0.191  1.100  2.709  0.000    18.732     6.389     0.517
   2  17 CL    -0.102  1.969  5.127  0.006   103.100    15.536     1.060
   3  17 CL    -0.102  1.970  5.127  0.006   103.109    15.536     1.060
   4  17 CL    -0.102  1.969  5.127  0.006   103.101    15.536     1.060
   5   1 H      0.116  0.884  0.000  0.000     1.620     1.989     0.394

 Mol. C6AA /au*bohr^6 :       1300.013503
 Mol. C8AA /au*bohr^6 :      50368.953154
 Mol. a(0) /au        :         54.986323

 
 Wiberg/Mayer (AO) data. WBOs > 0.1 written file <wbo>
 largest (>0.05) Wiberg bond orders for each atom
           total WBO             WBO to atom ...
     1  C   3.924    CL   2 0.987    CL   4 0.987    CL   3 0.987    H    5 0.964
     2  CL  1.088    C    1 0.987
     3  CL  1.087    C    1 0.987
     4  CL  1.088    C    1 0.987
     5  H   0.987    C    1 0.964
 
molecular dipole:
                 x           y           z       tot (Debye)
 q only:        0.189       0.267       0.464
   full:        0.473       0.223       0.386       1.203
molecular quadrupole (traceless):
                xx          xy          yy          xz          yz          zz
 q only:       -2.491      -1.899       0.543      -3.109       0.678       1.948
  q+dip:       -2.633      -1.197       0.177      -1.913       1.517       2.455
   full:       -2.260      -1.461       0.364      -2.370       0.871       1.897
 SCC converged in            3  cycles
 
SCC energy    :     -16.3120157
rep           :       0.0289280
ES            :       0.0118355
AES           :       0.0018081
AXC           :       0.0029236
disp          :      -0.0039465
XB            :       0.0000000
fix           :       0.0000000
total E       :     -16.2830871
atomizationE  :       0.8245980      517.44
(atE without considerung molecular charge,
 total energy contains solvation terms)
H-L gap (eV)  :          5.6316
 
             =======================================
             |                                     |
             |    Approximate Normal Coordinate    |
             |   Rational Function Optimization    |
             |                                     |
             =======================================
Ref. for RF algo: F.Eckert, P.Pulay, H.-J.Werner
                  J.Comput.Chem. 18 (1997) 1473.
ANC idea implemented by S. Grimme in the 2000ers (unpublished)
restraining potential by S. Ehrlich.
dumping coords to <xtbopt.coord> and <xtbopt.log
 optlevel               1
 Maxcycle             200
 Maxmicro              20
 Econv         1.000000000000000E-006
 Gconv         8.000000000000000E-004
 Maxdispl       1.00000000000000     
 Hlow          1.000000000000000E-002
 S6             20.0000000000000     
 Nvar                9

generating ANC from read Hessian ...
 Shifting diagonal of input Hessian by   0.000000000000000E+000
 Lowest  eigenvalues of input Hessian
   -0.000000   -0.000000    0.000000    0.000000    0.000000    0.000000
    0.051149    0.051170    0.078085    0.099886    0.099972    0.257881
    0.258563    0.267244    0.652808
 Highest eigenvalues
    0.099886    0.099972    0.257881    0.258563    0.267244    0.652808
 
cpu  time for ANC gen    0.01 s
wall time for ANC gen    0.01 s
................................................................................
.............................. CYCLE    1 ......................................
................................................................................
  q data taken from xtbrestart
  CAMM data taken from xtbrestart
   1    -16.3120157 -0.163120E+02  0.644E-05    5.63       0.0  T
   2    -16.3120157 -0.390088E-11  0.561E-05    5.63     797.0  T
   3    -16.3120157 -0.589395E-11  0.432E-05    5.63    1034.0  T
speedup  1.00
cpu  time for SCC    0.00 s
wall time for SCC    0.00 s
speedup  1.00
cpu  time for grad    0.00 s
wall time for grad    0.00 s
 E :    -16.28308714  G :  0.000208    pred/act E change:  0.000D+00 -0.647D-09
Maxdispl :   0.0007   ||displ|| :   0.0009   Lambda : -0.157D-06
Largest |displ|/coords:  0.0007 (   6)  0.0004 (   1)  0.0003 (   2)
ancopt converged in          1 cycles
total energy gain (kcal):      0.0000
================
 final structure:
================
     5
        -16.28308714
C          -2.87780049073831   -0.21386161240293   -0.01228733895913
CL         -4.64662192413366   -0.20233632204254    0.00696204838840
CL         -2.27731465243491    0.63547876425581   -1.44394170844499
CL         -2.27733146475161   -1.87772150999307    0.00717698673946
H          -2.51359238794150    0.30085836018274    0.87870741227627
 
 Bond Distances (Angstroems)
 ---------------------------
C1-CL2=1.7690        C1-CL3=1.7696        C1-CL4=1.7690        C1-H5=1.0915         CL2-C1=1.7690        CL3-C1=1.7696        
CL4-C1=1.7690        H5-C1=1.0915         
 C  H  Rav=1.0915 sigma=0.0000  Rmin=1.0915  Rmax=1.0915     1
 CL C  Rav=1.7692 sigma=0.0003  Rmin=1.7690  Rmax=1.7696     3
 
 selected bond angles (degree)
 --------------------
CL3-C1-CL2=110.18              CL4-C1-CL2=110.21              CL4-C1-CL3=110.19              H5-C1-CL2=108.76               
H5-C1-CL3=108.71               H5-C1-CL4=108.74               
 
 selected dihedral angles (degree)
 ---------------------------------

 
             =======================================
             |                                     |
             |        S C C  calculation           |
             |                                     |
             =======================================
 #proc     :            2
 Ncao      :           35
 Nao       :           32
 Nel       :           26
 T(el)     :   300.0
 intcut    :    25.0
 scfconv   :  0.100E-05
   qconv   :  0.100E-03
 intneglect:  0.100E-07
 broydamp  :      0.400
 Nshell    :           12
 iter      E             dE          RMSdq      gap      omega  full diag
   1    -16.3120157 -0.163120E+02  0.332E-05    5.63       0.0  T
   2    -16.3120157 -0.112976E-11  0.298E-05    5.63    1501.0  T
   3    -16.3120157 -0.114753E-11  0.262E-05    5.63    1709.1  T
speedup  1.00
cpu  time for SCC    0.00 s
wall time for SCC    0.00 s

          eigenvalues
 #    :           1          2          3          4          5          6          7          8
 occ. :        2.000      2.000      2.000      2.000      2.000      2.000      2.000      2.000
 eps  :       -29.750    -29.622    -29.621    -18.061    -15.926    -15.420    -15.419    -12.760
 #    :           9         10         11         12         13         14         15         16
 occ. :        2.000      2.000      2.000      2.000      2.000      0.000      0.000      0.000
 eps  :       -12.760    -12.377    -12.377    -12.280    -12.251     -6.620     -5.039     -5.034
 #    :          17         18         19         20         21         22         23         24
 occ. :        0.000      0.000      0.000      0.000      0.000      0.000      0.000      0.000
 eps  :        -0.914     -0.598     -0.598     -0.542     -0.541     -0.540     -0.492     -0.488
 

   #   Z            q   n(s)   n(p)   n(d)      C6AA      α(0)    relVol
   1   6 C      0.191  1.100  2.709  0.000    18.732     6.389     0.517
   2  17 CL    -0.102  1.969  5.127  0.006   103.100    15.536     1.060
   3  17 CL    -0.102  1.970  5.127  0.006   103.109    15.536     1.060
   4  17 CL    -0.102  1.969  5.127  0.006   103.101    15.536     1.060
   5   1 H      0.116  0.884  0.000  0.000     1.620     1.989     0.394

 Mol. C6AA /au*bohr^6 :       1300.013519
 Mol. C8AA /au*bohr^6 :      50368.953005
 Mol. a(0) /au        :         54.986323

 
 Wiberg/Mayer (AO) data. WBOs > 0.1 written file <wbo>
 largest (>0.05) Wiberg bond orders for each atom
           total WBO             WBO to atom ...
     1  C   3.924    CL   2 0.987    CL   4 0.987    CL   3 0.987    H    5 0.964
     2  CL  1.088    C    1 0.987
     3  CL  1.087    C    1 0.987
     4  CL  1.088    C    1 0.987
     5  H   0.987    C    1 0.964
 
molecular dipole:
                 x           y           z       tot (Debye)
 q only:        0.189       0.267       0.464
   full:        0.158       0.223       0.386       1.203
molecular quadrupole (traceless):
                xx          xy          yy          xz          yz          zz
 q only:       -2.491      -1.899       0.543      -3.109       0.678       1.948
  q+dip:       -2.633      -1.197       0.178      -1.914       1.517       2.455
   full:       -2.261      -1.461       0.364      -2.370       0.871       1.897
 SCC converged in            3  cycles
 
SCC energy    :     -16.3120157
rep           :       0.0289280
ES            :       0.0118355
AES           :       0.0018081
AXC           :       0.0029236
disp          :      -0.0039465
XB            :       0.0000000
fix           :       0.0000000
total E       :     -16.2830871
atomizationE  :       0.8245980      517.44
(atE without considerung molecular charge,
 total energy contains solvation terms)
H-L gap (eV)  :          5.6316
 !!!!!!!!!!!!!!!!!!!!!!!!!!!!!!!!!!!
 ! Note: the input coordinates are !
 ! NOT overwritten. The optimized  !
 ! ones are on file <xtbopt.coord> !
 ! (or on <xtbopt.xyz> if it was a !
 ! xyz file)                       !
 !!!!!!!!!!!!!!!!!!!!!!!!!!!!!!!!!!!
 
Refinement of some symmetry elements was terminated before convergence was reached.
Some symmetry elements may remain unidentified.
Molecule has the following symmetry elements: (C3) 3*(sigma) 
It seems to be the C3v point group
c3v symmetry found (for desy threshold:  0.10E+00) used in thermo
  q data taken from xtbrestart
  CAMM data taken from xtbrestart
 
             =======================================
             |                                     |
             |         Numerical Hessian           |
             |                                     |
             =======================================
step length          :   0.00500
SCC accuracy         :   0.30000
Hessian scale factor :   1.00000
frozen atoms in %    :   0.00000    0
RMS gradient         :   0.00021
estimated CPU  time      0.01 min
estimated wall time      0.01 min
 
 writing file <hessian>.
 
 projected vibrational frequencies (cm-1)
eig.   :       -0.00    -0.00     0.00     0.00     0.00     0.00
eig.   :      227.15   227.26   333.94   640.56   641.41   641.64
eig.   :     1119.63  1119.80  2931.01
 reduced masses (amu)
   1: 34.35   2: 35.04   3: 35.03   4: 33.35   5: 32.27   6: 32.71   7: 34.11   8: 34.11
   9: 31.05  10: 16.17  11: 16.20  12: 18.03  13:  1.96  14:  1.96  15:  1.79
 IR intensities (amu)
   1:  0.23   2:  0.06   3:  0.13   4:  0.09   5:  0.20   6:  0.26   7:  0.50   8:  0.49
   9:  0.30  10:  0.24  11:  0.24  12:  0.21  13:  0.30  14:  0.31  15:  0.10
 output can be read by thermo (or use thermo option).
 writing <g98.out> molden fake output.
 recommended (thermochemical) frequency scaling factor: 1.0
                    ==================
                    thermo calculation
                    ==================
Nvib :    9 Nimag : 0  symmetry :  c3v  rot number :  3  scale factor : 1.00 sthr :  50.
omega=227.15     Gvib=    -0.567     Grot=    -0.608     Gused=    -0.567
omega=227.26     Gvib=    -0.567     Grot=    -0.608     Gused=    -0.567
 
   temp. (K)  partition function   enthalpy   heat capacity  entropy
                                   cal/mol     cal/K/mol   cal/K/mol   J/K/mol
 298.15  VIB   3.27                 1179.883      8.572      6.311
         ROT  0.683E+05              888.752      2.981     25.104
         INT  0.223E+06             2068.635     11.553     31.415
         TR   0.126E+28             1481.254      4.968     40.228
         TOT                        3549.8889    16.5211    71.6424   299.7507
                     Eh         kcal/mol          kJ/mol 
ZPVE            0.179574E-01     11.2684         47.1470    
H(0)-H(T)+PV    0.565711E-02     3.54989         14.8527    
H(T)            0.236145E-01     14.8183         61.9997    
T*S             0.340396E-01     21.3602         89.3707    
G(T)           -0.104251E-01    -6.54185        -27.3710    
    -16.29351224  <=== TOTAL FREE ENERGY in Eh incl. el.,ZPVE,RRHO,solv. parts
 
Eat (element increment corrected) /kcal :   367.641
         -42.861  <=== HOF(298)/kcal, to be compared to exptl. data
 
 normal mode %tage of torsion character
   1:  0.00   2:  0.00   3:  0.00   4:  0.00   5:  0.00   6:  0.00   7:  0.20   8:  0.03
   9:  0.45  10:  0.16  11:  0.21  12:  0.32  13:  0.16  14:  0.45  15:  0.06
 recommended # of modes for mode following           4
 
speedup  0.96
cpu  time for all    0.58 s
wall time for all    0.60 s
