 Entering Gaussian System
 *********************************************
 Gaussian 98:
 frequency output generated by the xtb code
 *********************************************
                         Standard orientation:
 --------------------------------------------------------------------
  Center     Atomic     Atomic              Coordinates (Angstroms)
  Number     Number      Type              X           Y           Z
 --------------------------------------------------------------------
    1          6             0       -2.868825   -0.201388   -0.016329
    2          1             0       -2.516608   -1.230406   -0.043335
    3          1             0       -2.508544    0.308084   -0.907133
    4          1             0       -3.956394   -0.212371   -0.043408
    5          6             0       -2.372915    0.500045    1.242167
    6          1             0       -2.719882    1.536035    1.240656
    7          6             0       -2.863224   -0.193150    2.511159
    8          1             0       -3.955887   -0.211444    2.512035
    9          1             0       -2.516824   -1.229612    2.511876
   10          6             0       -2.369382    0.504637    3.775882
   11          1             0       -1.276714    0.522910    3.774705
   12          1             0       -2.715727    1.541125    3.774816
   13          1             0       -1.280518    0.518172    1.240781
   14          6             0       -2.859061   -0.187523    5.045630
   15          1             0       -2.512481   -1.223633    5.047866
   16          1             0       -3.951455   -0.205188    5.048076
   17          6             0       -2.361537    0.515153    6.302836
   18          1             0       -2.721787    0.007641    7.194755
   19          1             0       -1.273918    0.524892    6.329058
   20          1             0       -2.712424    1.544685    6.328318
 --------------------------------------------------------------------
     1 basis functions        1 primitive gaussians
     1 alpha electrons        1 beta electrons
 
 Harmonic frequencies (cm**-1), IR intensities (KM/Mole),
 Raman scattering activities (A**4/amu), Raman depolarization ratios,
 reduced masses (AMU), force constants (mDyne/A) and normal coordinates:
                      1                      2                      3
                        a                      a                      a 
 Frequencies --    68.4130                94.2919               135.1962
 Red. masses --     7.8815                 5.5020                 8.7171
 Frc consts  --     0.0000                 0.0000                 0.0000
 IR Inten    --     0.0657                 0.0091                 0.0331
 Raman Activ --     0.0000                 0.0000                 0.0000
 Depolar     --     0.0000                 0.0000                 0.0000
 Atom AN      X      Y      Z        X      Y      Z        X      Y      Z
   1   6    -0.36   0.25  -0.00    -0.05   0.03  -0.00    -0.23  -0.32   0.14
   2   1    -0.22   0.04  -0.07     0.17   0.08  -0.07    -0.07  -0.10   0.11
   3   1    -0.10   0.07  -0.00    -0.16   0.12   0.00    -0.13  -0.18  -0.03
   4   1    -0.11   0.20   0.07    -0.01  -0.19   0.07    -0.07  -0.10   0.11
   5   6     0.17  -0.12  -0.00    -0.23   0.16   0.00     0.04   0.06  -0.17
   6   1     0.14  -0.00   0.07    -0.22  -0.00   0.04     0.01   0.02  -0.11
   7   6     0.22  -0.16  -0.00     0.28  -0.20   0.00     0.21   0.31   0.02
   8   1     0.06  -0.05   0.01     0.08  -0.16   0.06     0.06   0.09   0.03
   9   1     0.07  -0.05  -0.01     0.18  -0.03  -0.06     0.06   0.09   0.03
  10   6     0.23  -0.16  -0.00     0.29  -0.20  -0.00     0.22   0.30   0.02
  11   1     0.06  -0.05   0.01     0.08  -0.16   0.06     0.06   0.08   0.03
  12   1     0.07  -0.05  -0.01     0.18  -0.03  -0.06     0.06   0.09   0.03
  13   1     0.05  -0.13  -0.07    -0.07   0.21  -0.04     0.01   0.02  -0.11
  14   6     0.17  -0.12  -0.00    -0.23   0.16   0.00     0.05   0.06  -0.17
  15   1     0.14  -0.00   0.07    -0.22  -0.00   0.04     0.01   0.02  -0.11
  16   1     0.05  -0.13  -0.07    -0.07   0.21  -0.04     0.01   0.02  -0.11
  17   6    -0.36   0.25   0.00    -0.05   0.04  -0.00    -0.23  -0.32   0.14
  18   1    -0.10   0.07  -0.00    -0.16   0.12  -0.00    -0.13  -0.18  -0.03
  19   1    -0.11   0.20   0.07    -0.01  -0.19   0.07    -0.07  -0.10   0.11
  20   1    -0.22   0.04  -0.07     0.17   0.08  -0.07    -0.07  -0.10   0.11
                      4                      5                      6
                        a                      a                      a 
 Frequencies --   135.9121               228.3932               237.9554
 Red. masses --     7.1229                 1.8353                 2.3758
 Frc consts  --     0.0000                 0.0000                 0.0000
 IR Inten    --     0.0001                 0.0000                 0.0074
 Raman Activ --     0.0000                 0.0000                 0.0000
 Depolar     --     0.0000                 0.0000                 0.0000
 Atom AN      X      Y      Z        X      Y      Z        X      Y      Z
   1   6     0.17  -0.12  -0.00     0.03  -0.02  -0.00     0.02  -0.01   0.00
   2   1     0.14  -0.00   0.04    -0.27  -0.11   0.22    -0.25  -0.10   0.21
   3   1     0.04  -0.03   0.00     0.34  -0.24  -0.00     0.31  -0.22   0.00
   4   1     0.05  -0.13  -0.05     0.01   0.29  -0.22     0.01   0.27  -0.21
   5   6    -0.21   0.15   0.00    -0.15   0.11  -0.00    -0.16   0.11   0.00
   6   1    -0.10   0.03  -0.06    -0.10   0.01  -0.01    -0.13   0.00   0.01
   7   6    -0.34   0.24  -0.00     0.03  -0.02  -0.00     0.13  -0.09   0.00
   8   1    -0.10   0.24   0.07     0.01  -0.07   0.02     0.04  -0.10   0.03
   9   1    -0.26   0.01  -0.07     0.07   0.02  -0.02     0.11  -0.00  -0.03
  10   6     0.33  -0.24  -0.00    -0.02   0.02  -0.00     0.13  -0.09   0.00
  11   1     0.10  -0.24  -0.07    -0.01   0.07  -0.02     0.04  -0.10   0.03
  12   1     0.26  -0.01   0.07    -0.07  -0.02   0.02     0.11  -0.00  -0.03
  13   1    -0.06   0.09   0.06    -0.05   0.09   0.01    -0.05   0.12  -0.01
  14   6     0.21  -0.15   0.00     0.15  -0.11   0.00    -0.16   0.11  -0.00
  15   1     0.10  -0.03   0.06     0.10  -0.01   0.01    -0.13   0.00   0.01
  16   1     0.06  -0.09  -0.06     0.04  -0.09  -0.01    -0.05   0.12  -0.01
  17   6    -0.17   0.12  -0.00    -0.03   0.02   0.00     0.02  -0.02  -0.00
  18   1    -0.04   0.03   0.00    -0.33   0.23  -0.00     0.31  -0.22   0.00
  19   1    -0.05   0.13   0.04    -0.01  -0.29   0.22     0.01   0.27  -0.21
  20   1    -0.14   0.00  -0.04     0.27   0.11  -0.22    -0.26  -0.10   0.21
                      7                      8                      9
                        a                      a                      a 
 Frequencies --   301.6363               370.8070               465.2804
 Red. masses --     8.5428                 9.5592                 8.5941
 Frc consts  --     0.0000                 0.0000                 0.0000
 IR Inten    --     0.0001                 0.0001                 0.0370
 Raman Activ --     0.0000                 0.0000                 0.0000
 Depolar     --     0.0000                 0.0000                 0.0000
 Atom AN      X      Y      Z        X      Y      Z        X      Y      Z
   1   6    -0.07  -0.10   0.41     0.07   0.10   0.30     0.00   0.01   0.30
   2   1    -0.03  -0.03   0.22     0.02   0.03   0.05    -0.01  -0.00   0.18
   3   1    -0.10  -0.14   0.02     0.05   0.07   0.12    -0.07  -0.10  -0.00
   4   1    -0.02  -0.04   0.22     0.02   0.03   0.05    -0.00  -0.01   0.18
   5   6     0.20   0.28   0.06    -0.09  -0.12   0.40     0.16   0.22   0.03
   6   1     0.05   0.08  -0.00    -0.02  -0.03   0.16     0.04   0.06   0.03
   7   6     0.11   0.15  -0.08    -0.13  -0.19   0.22    -0.14  -0.20  -0.35
   8   1     0.03   0.04  -0.07    -0.04  -0.05   0.10    -0.04  -0.05  -0.17
   9   1     0.03   0.04  -0.07    -0.03  -0.05   0.10    -0.04  -0.05  -0.17
  10   6    -0.11  -0.15   0.08     0.14   0.19  -0.22    -0.14  -0.20  -0.35
  11   1    -0.03  -0.04   0.07     0.04   0.05  -0.10    -0.04  -0.05  -0.17
  12   1    -0.03  -0.04   0.07     0.03   0.05  -0.10    -0.04  -0.05  -0.17
  13   1     0.06   0.07  -0.00    -0.02  -0.03   0.16     0.04   0.06   0.03
  14   6    -0.20  -0.28  -0.06     0.09   0.12  -0.40     0.16   0.23   0.03
  15   1    -0.05  -0.08   0.00     0.02   0.03  -0.16     0.04   0.06   0.03
  16   1    -0.06  -0.07   0.00     0.02   0.03  -0.16     0.04   0.06   0.03
  17   6     0.07   0.10  -0.41    -0.07  -0.10  -0.30     0.00   0.01   0.30
  18   1     0.10   0.14  -0.02    -0.05  -0.07  -0.12    -0.07  -0.10  -0.00
  19   1     0.02   0.03  -0.22    -0.02  -0.03  -0.05    -0.00  -0.01   0.18
  20   1     0.03   0.03  -0.22    -0.02  -0.03  -0.05    -0.01  -0.00   0.18
                     10                     11                     12
                        a                      a                      a 
 Frequencies --   769.8254               786.7995               843.0798
 Red. masses --     1.6305                 1.9852                 2.4472
 Frc consts  --     0.0000                 0.0000                 0.0000
 IR Inten    --     0.0452                 0.0000                 0.0393
 Raman Activ --     0.0000                 0.0000                 0.0000
 Depolar     --     0.0000                 0.0000                 0.0000
 Atom AN      X      Y      Z        X      Y      Z        X      Y      Z
   1   6    -0.01   0.00  -0.00     0.03  -0.02   0.00     0.07  -0.05  -0.00
   2   1     0.07   0.02   0.06    -0.14  -0.05  -0.14    -0.17  -0.07  -0.20
   3   1     0.02  -0.02   0.00    -0.06   0.04  -0.00    -0.09   0.06  -0.00
   4   1     0.00  -0.08  -0.06    -0.00   0.15   0.14     0.01   0.19   0.20
   5   6    -0.07   0.05   0.00     0.15  -0.11  -0.00     0.14  -0.10   0.00
   6   1     0.25   0.10  -0.05    -0.34  -0.15   0.01    -0.22  -0.11  -0.12
   7   6    -0.12   0.08  -0.00     0.08  -0.06  -0.00    -0.13   0.09   0.00
   8   1    -0.02  -0.39  -0.02     0.02   0.19  -0.10    -0.03  -0.21  -0.13
   9   1     0.36   0.15   0.02    -0.18  -0.08   0.10     0.19   0.10   0.13
  10   6    -0.12   0.08   0.00    -0.08   0.06  -0.00    -0.13   0.09   0.00
  11   1    -0.02  -0.39  -0.02    -0.02  -0.19   0.10    -0.03  -0.21  -0.13
  12   1     0.36   0.15   0.02     0.18   0.08  -0.10     0.19   0.10   0.13
  13   1    -0.01  -0.27   0.05     0.03   0.37  -0.01     0.03   0.24   0.12
  14   6    -0.07   0.05  -0.00    -0.15   0.11  -0.00     0.14  -0.10  -0.00
  15   1     0.25   0.10  -0.05     0.34   0.15  -0.01    -0.22  -0.11  -0.12
  16   1    -0.01  -0.27   0.05    -0.03  -0.37   0.01     0.03   0.24   0.12
  17   6    -0.01   0.00   0.00    -0.03   0.02   0.00     0.07  -0.05  -0.00
  18   1     0.02  -0.02   0.00     0.06  -0.04   0.00    -0.09   0.06  -0.00
  19   1     0.00  -0.08  -0.06     0.00  -0.15  -0.14     0.01   0.19   0.20
  20   1     0.07   0.02   0.06     0.14   0.05   0.14    -0.17  -0.07  -0.20
                     13                     14                     15
                        a                      a                      a 
 Frequencies --   926.3818               940.1046               942.1892
 Red. masses --     2.5040                 5.4036                 6.6639
 Frc consts  --     0.0000                 0.0000                 0.0000
 IR Inten    --     0.0001                 0.0001                 0.0467
 Raman Activ --     0.0000                 0.0000                 0.0000
 Depolar     --     0.0000                 0.0000                 0.0000
 Atom AN      X      Y      Z        X      Y      Z        X      Y      Z
   1   6    -0.12   0.08   0.00     0.06   0.09  -0.21    -0.02  -0.02   0.31
   2   1     0.17   0.08   0.22    -0.02   0.00   0.19     0.03   0.01  -0.13
   3   1     0.10  -0.07  -0.00    -0.18  -0.25  -0.29     0.17   0.24   0.29
   4   1    -0.02  -0.18  -0.22     0.01  -0.01   0.19     0.00   0.03  -0.13
   5   6    -0.00   0.00  -0.00     0.09   0.13  -0.08    -0.14  -0.19   0.04
   6   1     0.01   0.00   0.25     0.02   0.03   0.10    -0.04  -0.05  -0.07
   7   6     0.18  -0.13  -0.00    -0.19  -0.27   0.06     0.10   0.14  -0.27
   8   1     0.04   0.21  -0.13    -0.05  -0.07   0.08     0.03   0.04  -0.09
   9   1    -0.19  -0.11   0.13    -0.05  -0.07   0.08     0.03   0.04  -0.09
  10   6    -0.18   0.13  -0.00     0.19   0.27  -0.06     0.10   0.15  -0.27
  11   1    -0.04  -0.21   0.13     0.05   0.07  -0.08     0.03   0.04  -0.09
  12   1     0.19   0.11  -0.13     0.05   0.07  -0.08     0.03   0.04  -0.09
  13   1    -0.00  -0.01  -0.25     0.02   0.03   0.10    -0.04  -0.05  -0.07
  14   6     0.00  -0.00   0.00    -0.09  -0.13   0.07    -0.14  -0.20   0.04
  15   1    -0.01  -0.00  -0.25    -0.02  -0.03  -0.10    -0.04  -0.05  -0.07
  16   1     0.00   0.01   0.25    -0.02  -0.03  -0.10    -0.04  -0.05  -0.07
  17   6     0.12  -0.08   0.00    -0.06  -0.09   0.21    -0.02  -0.02   0.31
  18   1    -0.10   0.07   0.00     0.18   0.25   0.29     0.17   0.24   0.29
  19   1     0.02   0.18   0.22    -0.01   0.01  -0.19     0.00   0.03  -0.13
  20   1    -0.17  -0.08  -0.22     0.02  -0.00  -0.19     0.03   0.01  -0.13
                     16                     17                     18
                        a                      a                      a 
 Frequencies --  1004.4170              1074.7554              1080.3882
 Red. masses --     1.8711                10.0964                 7.5401
 Frc consts  --     0.0000                 0.0000                 0.0000
 IR Inten    --     0.0347                 0.0004                 0.0978
 Raman Activ --     0.0000                 0.0000                 0.0000
 Depolar     --     0.0000                 0.0000                 0.0000
 Atom AN      X      Y      Z        X      Y      Z        X      Y      Z
   1   6    -0.11   0.08  -0.00    -0.12  -0.18  -0.28     0.18   0.26   0.11
   2   1     0.12   0.06   0.16    -0.04  -0.05  -0.10     0.02   0.05   0.23
   3   1     0.07  -0.05  -0.00    -0.03  -0.04  -0.07    -0.08  -0.12  -0.12
   4   1    -0.02  -0.13  -0.16    -0.03  -0.05  -0.10     0.04   0.04   0.23
   5   6     0.11  -0.08  -0.00     0.12   0.17   0.32    -0.20  -0.29  -0.19
   6   1    -0.10  -0.06   0.24     0.04   0.05   0.10    -0.05  -0.08   0.05
   7   6    -0.04   0.03   0.00     0.14   0.20   0.29     0.05   0.07  -0.12
   8   1    -0.01  -0.04  -0.33     0.04   0.06   0.08     0.01   0.01   0.12
   9   1     0.04   0.02   0.33     0.05   0.06   0.08     0.01   0.02   0.12
  10   6    -0.04   0.03  -0.00    -0.14  -0.20  -0.29     0.05   0.07  -0.12
  11   1    -0.01  -0.04  -0.33    -0.04  -0.06  -0.08     0.01   0.01   0.12
  12   1     0.04   0.02   0.33    -0.05  -0.06  -0.08     0.01   0.02   0.12
  13   1     0.03   0.11  -0.24     0.03   0.05   0.10    -0.05  -0.08   0.05
  14   6     0.11  -0.08   0.00    -0.12  -0.17  -0.32    -0.20  -0.29  -0.19
  15   1    -0.10  -0.06   0.24    -0.04  -0.05  -0.10    -0.05  -0.08   0.05
  16   1     0.03   0.11  -0.24    -0.03  -0.05  -0.10    -0.05  -0.08   0.05
  17   6    -0.11   0.08   0.00     0.13   0.18   0.28     0.18   0.26   0.11
  18   1     0.07  -0.05   0.00     0.03   0.04   0.07    -0.08  -0.12  -0.12
  19   1    -0.02  -0.13  -0.16     0.03   0.05   0.10     0.04   0.04   0.23
  20   1     0.12   0.06   0.16     0.04   0.05   0.10     0.02   0.05   0.23
                     19                     20                     21
                        a                      a                      a 
 Frequencies --  1108.8946              1118.7911              1150.1714
 Red. masses --     7.6463                 8.0293                 8.2075
 Frc consts  --     0.0000                 0.0000                 0.0000
 IR Inten    --     0.0007                 0.1146                 0.0001
 Raman Activ --     0.0000                 0.0000                 0.0000
 Depolar     --     0.0000                 0.0000                 0.0000
 Atom AN      X      Y      Z        X      Y      Z        X      Y      Z
   1   6     0.09   0.13   0.11    -0.06  -0.08  -0.21     0.11   0.15  -0.07
   2   1     0.02   0.03   0.07    -0.03  -0.03   0.00    -0.01   0.02   0.17
   3   1     0.00   0.00   0.00    -0.06  -0.09  -0.11    -0.09  -0.13  -0.16
   4   1     0.02   0.03   0.07    -0.02  -0.04   0.00     0.02  -0.00   0.17
   5   6    -0.01  -0.02  -0.26    -0.05  -0.07   0.38    -0.21  -0.30   0.09
   6   1     0.00  -0.00  -0.18    -0.01  -0.02   0.26    -0.05  -0.07   0.12
   7   6     0.09   0.13   0.41     0.12   0.17  -0.26     0.21   0.30  -0.09
   8   1     0.02   0.04   0.24     0.03   0.06  -0.05     0.05   0.07  -0.04
   9   1     0.03   0.04   0.24     0.04   0.05  -0.05     0.05   0.07  -0.04
  10   6    -0.10  -0.14  -0.41     0.12   0.17  -0.26    -0.21  -0.30   0.09
  11   1    -0.03  -0.04  -0.24     0.03   0.06  -0.05    -0.05  -0.07   0.04
  12   1    -0.03  -0.04  -0.24     0.04   0.05  -0.05    -0.05  -0.07   0.04
  13   1    -0.00   0.00  -0.18    -0.01  -0.02   0.26    -0.05  -0.07   0.12
  14   6     0.01   0.02   0.26    -0.05  -0.07   0.38     0.21   0.30  -0.09
  15   1    -0.00   0.00   0.18    -0.01  -0.02   0.26     0.05   0.07  -0.12
  16   1     0.00  -0.00   0.18    -0.01  -0.02   0.26     0.05   0.07  -0.12
  17   6    -0.09  -0.13  -0.11    -0.06  -0.08  -0.21    -0.11  -0.15   0.07
  18   1    -0.00  -0.00  -0.00    -0.06  -0.09  -0.11     0.09   0.13   0.16
  19   1    -0.02  -0.03  -0.07    -0.02  -0.04   0.00    -0.02   0.00  -0.17
  20   1    -0.02  -0.03  -0.07    -0.03  -0.03   0.00     0.01  -0.02  -0.17
                     22                     23                     24
                        a                      a                      a 
 Frequencies --  1200.2345              1230.3478              1261.1725
 Red. masses --     6.4929                 4.5637                 3.5814
 Frc consts  --     0.0000                 0.0000                 0.0000
 IR Inten    --     0.0001                 0.0450                 0.0612
 Raman Activ --     0.0000                 0.0000                 0.0000
 Depolar     --     0.0000                 0.0000                 0.0000
 Atom AN      X      Y      Z        X      Y      Z        X      Y      Z
   1   6    -0.17   0.12  -0.00     0.20  -0.14   0.00    -0.07  -0.10   0.05
   2   1     0.12   0.08   0.15    -0.13  -0.09  -0.17     0.02  -0.01  -0.07
   3   1     0.07  -0.05  -0.00    -0.09   0.06   0.00     0.06   0.08   0.10
   4   1    -0.03  -0.13  -0.15     0.04   0.16   0.17    -0.01   0.02  -0.07
   5   6     0.26  -0.18   0.00    -0.25   0.17  -0.00     0.09   0.13  -0.16
   6   1    -0.16  -0.12   0.00     0.14   0.11   0.18     0.01   0.03   0.18
   7   6    -0.27   0.19   0.00     0.08  -0.06  -0.00    -0.04  -0.06  -0.21
   8   1    -0.06  -0.19  -0.03     0.02   0.06  -0.21    -0.01  -0.01   0.37
   9   1     0.16   0.12   0.03    -0.05  -0.03   0.21    -0.01  -0.01   0.37
  10   6     0.27  -0.19   0.00     0.08  -0.06   0.00    -0.04  -0.06  -0.21
  11   1     0.06   0.19   0.03     0.02   0.06  -0.21    -0.01  -0.01   0.37
  12   1    -0.16  -0.12  -0.03    -0.05  -0.03   0.21    -0.01  -0.01   0.37
  13   1     0.06   0.19  -0.00    -0.06  -0.16  -0.18     0.02   0.02   0.18
  14   6    -0.26   0.18   0.00    -0.24   0.17  -0.00     0.09   0.13  -0.16
  15   1     0.16   0.12  -0.00     0.14   0.11   0.18     0.01   0.03   0.18
  16   1    -0.06  -0.19   0.00    -0.06  -0.16  -0.18     0.02   0.02   0.18
  17   6     0.17  -0.12  -0.00     0.20  -0.14   0.00    -0.07  -0.10   0.05
  18   1    -0.07   0.05  -0.00    -0.09   0.06  -0.00     0.06   0.08   0.10
  19   1     0.03   0.14   0.15     0.04   0.16   0.17    -0.01   0.02  -0.07
  20   1    -0.12  -0.08  -0.15    -0.13  -0.09  -0.17     0.02  -0.01  -0.07
                     25                     26                     27
                        a                      a                      a 
 Frequencies --  1268.8309              1284.3238              1293.2547
 Red. masses --     2.5402                 1.9476                 2.1401
 Frc consts  --     0.0000                 0.0000                 0.0000
 IR Inten    --     0.0001                 0.0001                 0.0040
 Raman Activ --     0.0000                 0.0000                 0.0000
 Depolar     --     0.0000                 0.0000                 0.0000
 Atom AN      X      Y      Z        X      Y      Z        X      Y      Z
   1   6    -0.14   0.10  -0.00    -0.04   0.03  -0.00     0.08  -0.05   0.00
   2   1     0.08   0.06   0.11     0.03   0.02   0.03    -0.04  -0.03  -0.06
   3   1     0.04  -0.03  -0.00     0.03  -0.02  -0.00    -0.01   0.01  -0.00
   4   1    -0.03  -0.10  -0.11    -0.01  -0.04  -0.03     0.02   0.05   0.06
   5   6     0.01  -0.01   0.00     0.11  -0.08   0.00     0.08  -0.06  -0.00
   6   1    -0.00  -0.01  -0.42    -0.05  -0.05   0.04    -0.04  -0.03   0.37
   7   6     0.16  -0.11   0.00     0.12  -0.08  -0.00    -0.15   0.11   0.00
   8   1     0.04   0.10  -0.05     0.03   0.07   0.46    -0.04  -0.09   0.26
   9   1    -0.08  -0.07   0.04    -0.06  -0.05  -0.46     0.07   0.06  -0.26
  10   6    -0.16   0.11   0.00    -0.12   0.09  -0.00    -0.15   0.10   0.00
  11   1    -0.04  -0.10   0.05    -0.03  -0.07  -0.46    -0.04  -0.08   0.27
  12   1     0.08   0.07  -0.05     0.06   0.05   0.46     0.07   0.06  -0.27
  13   1     0.00   0.01   0.42     0.03   0.06  -0.04     0.02   0.05  -0.37
  14   6    -0.01   0.01  -0.00    -0.11   0.08  -0.00     0.08  -0.06  -0.00
  15   1     0.00   0.01   0.42     0.05   0.05  -0.03    -0.04  -0.03   0.37
  16   1    -0.00  -0.01  -0.42    -0.03  -0.06   0.03     0.02   0.05  -0.37
  17   6     0.14  -0.10   0.00     0.04  -0.03  -0.00     0.08  -0.05   0.00
  18   1    -0.04   0.03  -0.00    -0.03   0.02  -0.00    -0.01   0.01   0.00
  19   1     0.03   0.10   0.11     0.01   0.04   0.03     0.02   0.04   0.05
  20   1    -0.08  -0.06  -0.11    -0.03  -0.02  -0.03    -0.04  -0.03  -0.05
                     28                     29                     30
                        a                      a                      a 
 Frequencies --  1319.9239              1364.5398              1380.0345
 Red. masses --     3.8998                 4.7030                 5.7006
 Frc consts  --     0.0000                 0.0000                 0.0000
 IR Inten    --     0.0002                 0.0804                 0.0002
 Raman Activ --     0.0000                 0.0000                 0.0000
 Depolar     --     0.0000                 0.0000                 0.0000
 Atom AN      X      Y      Z        X      Y      Z        X      Y      Z
   1   6     0.07   0.09  -0.04     0.04   0.06  -0.03     0.01   0.01  -0.05
   2   1    -0.05  -0.00   0.01    -0.06  -0.01  -0.02    -0.02  -0.01   0.01
   3   1    -0.07  -0.09  -0.11    -0.05  -0.08  -0.09    -0.01  -0.01  -0.02
   4   1     0.01  -0.04   0.01     0.01  -0.06  -0.02     0.00  -0.03   0.01
   5   6    -0.03  -0.04   0.29     0.02   0.02   0.34     0.02   0.02   0.24
   6   1    -0.01  -0.01  -0.34    -0.02  -0.00  -0.33    -0.02  -0.00  -0.19
   7   6    -0.05  -0.07   0.16    -0.03  -0.04  -0.20     0.01   0.01  -0.39
   8   1    -0.01   0.01  -0.22    -0.01   0.02   0.21     0.00  -0.01   0.33
   9   1     0.01  -0.01  -0.22     0.02  -0.00   0.21    -0.01   0.00   0.33
  10   6     0.05   0.07  -0.15    -0.03  -0.04  -0.20    -0.01  -0.01   0.39
  11   1     0.01  -0.01   0.22    -0.01   0.02   0.21    -0.00   0.01  -0.33
  12   1    -0.01   0.01   0.22     0.02  -0.00   0.21     0.01  -0.00  -0.33
  13   1    -0.01  -0.01  -0.34     0.00  -0.02  -0.33     0.00  -0.02  -0.19
  14   6     0.03   0.04  -0.29     0.02   0.02   0.34    -0.02  -0.02  -0.24
  15   1     0.01   0.01   0.35    -0.02  -0.00  -0.33     0.02   0.00   0.19
  16   1     0.01   0.01   0.35     0.00  -0.02  -0.33    -0.00   0.02   0.19
  17   6    -0.07  -0.09   0.04     0.04   0.06  -0.03    -0.01  -0.01   0.05
  18   1     0.07   0.09   0.11    -0.05  -0.08  -0.09     0.01   0.01   0.02
  19   1    -0.01   0.04  -0.01     0.01  -0.06  -0.02    -0.00   0.03  -0.01
  20   1     0.05   0.00  -0.01    -0.06  -0.01  -0.02     0.03   0.01  -0.01
                     31                     32                     33
                        a                      a                      a 
 Frequencies --  1416.3262              1416.3901              1496.3530
 Red. masses --     3.1527                 3.2112                 1.9115
 Frc consts  --     0.0000                 0.0000                 0.0000
 IR Inten    --     0.0086                 0.0527                 0.0009
 Raman Activ --     0.0000                 0.0000                 0.0000
 Depolar     --     0.0000                 0.0000                 0.0000
 Atom AN      X      Y      Z        X      Y      Z        X      Y      Z
   1   6    -0.10  -0.15  -0.30    -0.07  -0.10  -0.22     0.02   0.03  -0.01
   2   1     0.18   0.04   0.37     0.12   0.03   0.27    -0.13  -0.04   0.01
   3   1     0.20   0.28   0.22     0.14   0.20   0.16     0.03   0.04   0.03
   4   1    -0.02   0.18   0.37    -0.01   0.13   0.27     0.00  -0.14   0.02
   5   6    -0.00  -0.00   0.06    -0.00  -0.00   0.06    -0.08  -0.11  -0.02
   6   1     0.04   0.01  -0.06     0.03   0.01  -0.06     0.29   0.09   0.01
   7   6    -0.01  -0.02   0.02    -0.00  -0.00  -0.03    -0.08  -0.12  -0.03
   8   1    -0.00  -0.01  -0.03    -0.00  -0.00   0.02    -0.01   0.34   0.02
   9   1    -0.00  -0.01  -0.03    -0.00  -0.00   0.02     0.32   0.10   0.02
  10   6     0.01   0.02  -0.03    -0.01  -0.01  -0.02     0.09   0.12   0.03
  11   1     0.00   0.00   0.03    -0.00  -0.01   0.01     0.01  -0.36  -0.02
  12   1     0.00   0.00   0.03    -0.00  -0.00   0.01    -0.34  -0.11  -0.02
  13   1     0.00   0.04  -0.06     0.00   0.03  -0.06    -0.01   0.31   0.01
  14   6     0.00   0.00  -0.04    -0.00  -0.00   0.08     0.07   0.10   0.02
  15   1    -0.03  -0.01   0.04     0.04   0.01  -0.07    -0.27  -0.09  -0.01
  16   1    -0.00  -0.03   0.04     0.00   0.04  -0.07     0.01  -0.29  -0.01
  17   6     0.08   0.11   0.22    -0.10  -0.15  -0.30    -0.02  -0.03   0.01
  18   1    -0.14  -0.20  -0.16     0.20   0.28   0.22    -0.03  -0.04  -0.03
  19   1     0.01  -0.13  -0.27    -0.02   0.18   0.37    -0.00   0.14  -0.02
  20   1    -0.13  -0.03  -0.27     0.17   0.04   0.37     0.13   0.04  -0.02
                     34                     35                     36
                        a                      a                      a 
 Frequencies --  1497.0360              1500.6054              1503.1774
 Red. masses --     1.8499                 1.9806                 1.7980
 Frc consts  --     0.0000                 0.0000                 0.0000
 IR Inten    --     0.0317                 0.0795                 0.0003
 Raman Activ --     0.0000                 0.0000                 0.0000
 Depolar     --     0.0000                 0.0000                 0.0000
 Atom AN      X      Y      Z        X      Y      Z        X      Y      Z
   1   6     0.01   0.02   0.01     0.03   0.04  -0.01     0.00   0.00  -0.02
   2   1    -0.06  -0.02  -0.01    -0.14  -0.05   0.02    -0.01  -0.00   0.02
   3   1     0.00   0.00   0.00     0.03   0.04   0.04     0.02   0.02   0.02
   4   1     0.00  -0.06  -0.01     0.00  -0.15   0.02     0.00  -0.01   0.02
   5   6    -0.08  -0.12   0.02    -0.07  -0.09  -0.03     0.09   0.12  -0.01
   6   1     0.34   0.11  -0.01     0.26   0.09   0.01    -0.35  -0.11   0.01
   7   6     0.07   0.11  -0.02    -0.10  -0.14   0.01    -0.07  -0.09   0.01
   8   1     0.01  -0.31   0.02    -0.01   0.36  -0.00    -0.01   0.31  -0.00
   9   1    -0.30  -0.10   0.02     0.34   0.11  -0.00     0.30   0.10  -0.00
  10   6     0.07   0.10  -0.02    -0.10  -0.14   0.01     0.07   0.09  -0.01
  11   1     0.01  -0.29   0.02    -0.01   0.36  -0.00     0.01  -0.31   0.00
  12   1    -0.28  -0.09   0.02     0.34   0.11  -0.00    -0.29  -0.10   0.00
  13   1    -0.01   0.36  -0.01    -0.01   0.27   0.01     0.01  -0.37   0.01
  14   6    -0.09  -0.12   0.02    -0.07  -0.09  -0.03    -0.09  -0.12   0.01
  15   1     0.36   0.12  -0.01     0.26   0.08   0.01     0.35   0.11  -0.01
  16   1    -0.01   0.38  -0.01    -0.01   0.27   0.01    -0.01   0.37  -0.01
  17   6     0.01   0.02   0.00     0.03   0.04  -0.01    -0.00  -0.00   0.02
  18   1     0.00   0.00   0.00     0.03   0.04   0.04    -0.01  -0.02  -0.02
  19   1     0.00  -0.07  -0.01     0.00  -0.15   0.02    -0.00   0.00  -0.02
  20   1    -0.07  -0.02  -0.01    -0.14  -0.05   0.02     0.01   0.00  -0.02
                     37                     38                     39
                        a                      a                      a 
 Frequencies --  1505.0356              1505.0703              1508.0931
 Red. masses --     1.5317                 1.5318                 1.6809
 Frc consts  --     0.0000                 0.0000                 0.0000
 IR Inten    --     0.0338                 0.0106                 0.0293
 Raman Activ --     0.0000                 0.0000                 0.0000
 Depolar     --     0.0000                 0.0000                 0.0000
 Atom AN      X      Y      Z        X      Y      Z        X      Y      Z
   1   6     0.08  -0.06  -0.00    -0.15   0.11   0.00    -0.08  -0.11   0.08
   2   1    -0.07  -0.03   0.20     0.13   0.07  -0.39     0.43   0.14  -0.10
   3   1    -0.27   0.19   0.00     0.52  -0.37  -0.00    -0.12  -0.17  -0.13
   4   1     0.01   0.08  -0.20    -0.02  -0.14   0.39    -0.01   0.45  -0.10
   5   6     0.02  -0.01  -0.00    -0.03   0.02   0.00    -0.05  -0.07   0.04
   6   1    -0.01  -0.01  -0.01     0.01   0.01   0.02     0.14   0.04  -0.02
   7   6    -0.00   0.00   0.00     0.00   0.00   0.00    -0.02  -0.03  -0.01
   8   1    -0.00  -0.00   0.01    -0.00  -0.00  -0.02    -0.00   0.09   0.00
   9   1     0.00   0.00  -0.01    -0.00   0.00   0.02     0.09   0.03   0.00
  10   6    -0.00   0.00  -0.00     0.00  -0.00  -0.00    -0.02  -0.03  -0.01
  11   1     0.00  -0.00   0.02     0.00   0.00   0.01    -0.00   0.08   0.00
  12   1     0.00   0.00  -0.02    -0.00  -0.00  -0.01     0.07   0.02   0.00
  13   1     0.00   0.01   0.01    -0.01  -0.01  -0.02    -0.01   0.14  -0.02
  14   6     0.03  -0.02   0.00     0.02  -0.01   0.00    -0.05  -0.07   0.03
  15   1    -0.01  -0.01  -0.02    -0.00  -0.01  -0.01     0.13   0.04  -0.02
  16   1     0.01   0.02   0.02     0.00   0.01   0.01    -0.01   0.13  -0.02
  17   6     0.15  -0.11   0.00     0.08  -0.06   0.00    -0.06  -0.09   0.07
  18   1    -0.52   0.37  -0.00    -0.27   0.19  -0.00    -0.10  -0.14  -0.11
  19   1     0.02   0.14  -0.39     0.01   0.08  -0.20    -0.01   0.38  -0.09
  20   1    -0.13  -0.06   0.39    -0.07  -0.03   0.20     0.36   0.12  -0.09
                     40                     41                     42
                        a                      a                      a 
 Frequencies --  1508.3581              2953.2749              2958.3018
 Red. masses --     1.6290                 1.8964                 1.9522
 Frc consts  --     0.0000                 0.0000                 0.0000
 IR Inten    --     0.0024                 0.0008                 0.0316
 Raman Activ --     0.0000                 0.0000                 0.0000
 Depolar     --     0.0000                 0.0000                 0.0000
 Atom AN      X      Y      Z        X      Y      Z        X      Y      Z
   1   6    -0.07  -0.09   0.07     0.00  -0.00  -0.00    -0.01   0.01   0.00
   2   1     0.37   0.13  -0.09    -0.00   0.01   0.00     0.01  -0.03  -0.00
   3   1    -0.10  -0.14  -0.11     0.00  -0.00   0.00    -0.00   0.00   0.00
   4   1    -0.01   0.39  -0.09    -0.01  -0.00  -0.00     0.03   0.00   0.00
   5   6    -0.03  -0.04   0.03    -0.06   0.04  -0.00     0.13  -0.09   0.00
   6   1     0.06   0.01  -0.02     0.05  -0.18   0.00    -0.11   0.35  -0.00
   7   6    -0.02  -0.03  -0.02     0.15  -0.11  -0.00    -0.11   0.08   0.00
   8   1    -0.00   0.11   0.01    -0.44  -0.02  -0.00     0.31   0.01  -0.00
   9   1     0.11   0.04   0.01    -0.13   0.42   0.00     0.09  -0.29   0.00
  10   6     0.02   0.03   0.02    -0.15   0.11   0.00    -0.11   0.08   0.00
  11   1     0.00  -0.13  -0.01     0.44   0.02   0.00     0.31   0.01  -0.00
  12   1    -0.12  -0.04  -0.01     0.13  -0.42  -0.00     0.09  -0.29   0.00
  13   1    -0.01   0.06  -0.02     0.19   0.01  -0.00    -0.37  -0.01   0.00
  14   6     0.04   0.05  -0.04     0.06  -0.04  -0.00     0.13  -0.09  -0.00
  15   1    -0.08  -0.02   0.02    -0.05   0.18  -0.00    -0.11   0.35  -0.00
  16   1     0.01  -0.08   0.02    -0.19  -0.01   0.00    -0.36  -0.01   0.00
  17   6     0.08   0.11  -0.08    -0.00   0.00   0.00    -0.01   0.01   0.00
  18   1     0.12   0.17   0.13    -0.00   0.00  -0.00    -0.00   0.00  -0.00
  19   1     0.01  -0.46   0.10     0.01   0.00   0.00     0.03   0.00   0.00
  20   1    -0.43  -0.15   0.10     0.00  -0.01  -0.00     0.01  -0.03  -0.00
                     43                     44                     45
                        a                      a                      a 
 Frequencies --  2966.4918              2973.0811              2973.3668
 Red. masses --     2.0062                 1.4474                 1.4656
 Frc consts  --     0.0000                 0.0000                 0.0000
 IR Inten    --     0.0008                 0.0029                 0.0227
 Raman Activ --     0.0000                 0.0000                 0.0000
 Depolar     --     0.0000                 0.0000                 0.0000
 Atom AN      X      Y      Z        X      Y      Z        X      Y      Z
   1   6     0.02  -0.01  -0.00    -0.01  -0.01   0.00    -0.00  -0.00   0.00
   2   1    -0.02   0.05   0.00    -0.01   0.02   0.00    -0.00   0.01   0.00
   3   1     0.00  -0.00   0.00     0.00   0.01  -0.01     0.00   0.01  -0.01
   4   1    -0.06  -0.00  -0.00     0.02  -0.00   0.00     0.01  -0.00   0.00
   5   6    -0.16   0.11  -0.00     0.01   0.01  -0.00     0.06   0.08   0.00
   6   1     0.13  -0.41  -0.00     0.01  -0.02  -0.00     0.13  -0.32   0.00
   7   6    -0.07   0.05   0.00     0.07   0.11  -0.00    -0.07  -0.10  -0.00
   8   1     0.19   0.01   0.00    -0.45   0.02  -0.00     0.39  -0.01  -0.00
   9   1     0.06  -0.18  -0.00     0.16  -0.42  -0.00    -0.15   0.37  -0.00
  10   6     0.07  -0.05  -0.00    -0.09  -0.12   0.00    -0.05  -0.07  -0.00
  11   1    -0.18  -0.01  -0.00     0.52  -0.02  -0.00     0.29  -0.01  -0.00
  12   1    -0.06   0.17   0.00    -0.19   0.49  -0.00    -0.11   0.28  -0.00
  13   1     0.44   0.02   0.00    -0.02   0.00  -0.00    -0.35   0.01   0.00
  14   6     0.16  -0.11  -0.00     0.01   0.01   0.00     0.06   0.08   0.00
  15   1    -0.13   0.42   0.00     0.02  -0.04   0.00     0.12  -0.31   0.00
  16   1    -0.44  -0.02  -0.00    -0.05   0.00   0.00    -0.34   0.01   0.00
  17   6    -0.02   0.01   0.00     0.00   0.01  -0.00    -0.00  -0.00   0.00
  18   1    -0.00   0.00  -0.00    -0.00  -0.01   0.01     0.01   0.01  -0.01
  19   1     0.06   0.00   0.00    -0.02   0.00   0.00     0.01  -0.00   0.00
  20   1     0.02  -0.06  -0.00     0.01  -0.02   0.00    -0.00   0.01   0.00
                     46                     47                     48
                        a                      a                      a 
 Frequencies --  2975.4512              2979.2796              2985.9786
 Red. masses --     2.0482                 1.4824                 1.5244
 Frc consts  --     0.0000                 0.0000                 0.0000
 IR Inten    --     0.5378                 0.0020                 0.4365
 Raman Activ --     0.0000                 0.0000                 0.0000
 Depolar     --     0.0000                 0.0000                 0.0000
 Atom AN      X      Y      Z        X      Y      Z        X      Y      Z
   1   6     0.02  -0.01  -0.00    -0.01  -0.01   0.01     0.01   0.02  -0.01
   2   1    -0.02   0.06   0.00    -0.01   0.04   0.00     0.02  -0.05  -0.00
   3   1     0.00  -0.00   0.00     0.01   0.02  -0.04    -0.02  -0.03   0.05
   4   1    -0.06  -0.00  -0.00     0.04  -0.00   0.00    -0.06   0.00  -0.00
   5   6    -0.11   0.08  -0.00     0.08   0.12  -0.00    -0.06  -0.09   0.00
   6   1     0.09  -0.29   0.00     0.18  -0.45   0.00    -0.13   0.32  -0.00
   7   6    -0.14   0.10   0.00     0.01   0.01  -0.00    -0.06  -0.09   0.00
   8   1     0.37   0.01   0.00    -0.01   0.00   0.00     0.34  -0.01   0.00
   9   1     0.11  -0.35  -0.00     0.01  -0.01   0.00    -0.13   0.32   0.00
  10   6    -0.14   0.10   0.00    -0.00  -0.01   0.00    -0.06  -0.09   0.00
  11   1     0.37   0.01   0.00     0.01  -0.00  -0.00     0.34  -0.01   0.00
  12   1     0.11  -0.34  -0.00    -0.00   0.00  -0.00    -0.13   0.32   0.00
  13   1     0.30   0.01  -0.00    -0.48   0.02   0.00     0.34  -0.01  -0.00
  14   6    -0.11   0.08   0.00    -0.08  -0.12   0.00    -0.06  -0.09   0.00
  15   1     0.09  -0.29   0.00    -0.18   0.45  -0.00    -0.13   0.32  -0.00
  16   1     0.30   0.01  -0.00     0.49  -0.02  -0.00     0.34  -0.01  -0.00
  17   6     0.02  -0.01  -0.00     0.01   0.01  -0.01     0.01   0.02  -0.01
  18   1     0.00  -0.00   0.00    -0.01  -0.02   0.04    -0.02  -0.03   0.05
  19   1    -0.06  -0.00  -0.00    -0.04   0.00  -0.00    -0.06   0.00  -0.00
  20   1    -0.02   0.06   0.00     0.01  -0.03  -0.00     0.02  -0.05  -0.00
                     49                     50                     51
                        a                      a                      a 
 Frequencies --  3028.9342              3029.4112              3031.2801
 Red. masses --     1.9578                 1.9586                 1.9108
 Frc consts  --     0.0000                 0.0000                 0.0000
 IR Inten    --     0.0845                 0.4046                 0.0102
 Raman Activ --     0.0000                 0.0000                 0.0000
 Depolar     --     0.0000                 0.0000                 0.0000
 Atom AN      X      Y      Z        X      Y      Z        X      Y      Z
   1   6    -0.13   0.09   0.00     0.20  -0.14  -0.00    -0.10  -0.14   0.09
   2   1     0.11  -0.35  -0.00    -0.17   0.53   0.00    -0.14   0.32   0.02
   3   1    -0.02   0.01  -0.00     0.03  -0.02   0.00     0.14   0.20  -0.36
   4   1     0.37   0.01   0.00    -0.56  -0.02  -0.00     0.34  -0.02   0.02
   5   6    -0.02   0.01   0.00     0.03  -0.02   0.00    -0.01  -0.02   0.00
   6   1     0.01  -0.04   0.00    -0.02   0.07  -0.00    -0.02   0.04  -0.00
   7   6    -0.00   0.00   0.00     0.01  -0.01  -0.00    -0.00  -0.00   0.00
   8   1     0.01   0.00  -0.00    -0.03  -0.00   0.00     0.02  -0.00  -0.00
   9   1     0.00  -0.01   0.00    -0.01   0.03  -0.00    -0.01   0.02  -0.00
  10   6     0.01  -0.00  -0.00     0.01  -0.01   0.00     0.00   0.01  -0.00
  11   1    -0.02  -0.00   0.00    -0.02  -0.00   0.00    -0.02   0.00   0.00
  12   1    -0.00   0.02  -0.00    -0.01   0.02  -0.00     0.01  -0.02   0.00
  13   1     0.04   0.00  -0.00    -0.07  -0.00   0.00     0.05  -0.00  -0.00
  14   6     0.03  -0.02  -0.00     0.02  -0.01   0.00     0.01   0.02  -0.00
  15   1    -0.02   0.06  -0.00    -0.02   0.05  -0.00     0.02  -0.05   0.00
  16   1    -0.07  -0.00   0.00    -0.05  -0.00   0.00    -0.05   0.00   0.00
  17   6     0.20  -0.14   0.00     0.13  -0.09   0.00     0.11   0.15  -0.10
  18   1     0.03  -0.02   0.00     0.02  -0.01  -0.00    -0.15  -0.21   0.37
  19   1    -0.56  -0.02  -0.00    -0.37  -0.01  -0.00    -0.37   0.02  -0.02
  20   1    -0.17   0.53   0.00    -0.11   0.35   0.00     0.14  -0.34  -0.02
                     52                     53                     54
                        a                      a                      a 
 Frequencies --  3031.7884              3036.5842              3037.0446
 Red. masses --     1.9167                 1.2742                 1.2822
 Frc consts  --     0.0000                 0.0000                 0.0000
 IR Inten    --     0.3937                 0.2579                 0.0084
 Raman Activ --     0.0000                 0.0000                 0.0000
 Depolar     --     0.0000                 0.0000                 0.0000
 Atom AN      X      Y      Z        X      Y      Z        X      Y      Z
   1   6    -0.10  -0.15   0.10     0.01   0.02   0.10    -0.01  -0.02  -0.11
   2   1    -0.14   0.32   0.02     0.11  -0.32   0.01    -0.12   0.32  -0.01
   3   1     0.16   0.22  -0.39     0.17   0.24  -0.39    -0.18  -0.26   0.42
   4   1     0.35  -0.02   0.02    -0.33   0.00   0.01     0.34  -0.00  -0.01
   5   6    -0.01  -0.02   0.00     0.00   0.00   0.00    -0.00  -0.00  -0.00
   6   1    -0.02   0.06  -0.00     0.00  -0.01   0.00    -0.00   0.00  -0.00
   7   6    -0.01  -0.01   0.00     0.00   0.00  -0.00    -0.00  -0.00   0.00
   8   1     0.04  -0.00  -0.00    -0.01   0.00  -0.00     0.01  -0.00  -0.00
   9   1    -0.02   0.04  -0.00     0.00  -0.01  -0.00    -0.00   0.01  -0.00
  10   6    -0.01  -0.01   0.00     0.00   0.00  -0.00     0.00   0.00  -0.00
  11   1     0.04  -0.00  -0.00    -0.01   0.00  -0.00    -0.01   0.00   0.00
  12   1    -0.02   0.04  -0.00     0.00  -0.01  -0.00     0.00  -0.00   0.00
  13   1     0.06  -0.00  -0.00    -0.01   0.00   0.00     0.00  -0.00  -0.00
  14   6    -0.01  -0.02   0.00     0.00   0.00   0.00     0.00   0.00   0.00
  15   1    -0.02   0.05  -0.00     0.00  -0.01   0.00     0.00   0.00   0.00
  16   1     0.06  -0.00  -0.00    -0.01   0.00   0.00     0.00   0.00   0.00
  17   6    -0.10  -0.14   0.09     0.01   0.02   0.11     0.01   0.01   0.11
  18   1     0.14   0.20  -0.36     0.18   0.26  -0.42     0.18   0.25  -0.41
  19   1     0.34  -0.02   0.02    -0.34   0.00   0.01    -0.32   0.00   0.01
  20   1    -0.13   0.32   0.02     0.12  -0.33   0.01     0.11  -0.30   0.01
