 Entering Gaussian System
 *********************************************
 Gaussian 98:
 frequency output generated by the xtb code
 *********************************************
                         Standard orientation:
 --------------------------------------------------------------------
  Center     Atomic     Atomic              Coordinates (Angstroms)
  Number     Number      Type              X           Y           Z
 --------------------------------------------------------------------
    1          6             0       -2.868824   -0.201403   -0.016340
    2          1             0       -2.516602   -1.230419   -0.043346
    3          1             0       -2.508542    0.308072   -0.907141
    4          1             0       -3.956393   -0.212392   -0.043422
    5          6             0       -2.372922    0.500031    1.242160
    6          1             0       -2.719894    1.536018    1.240649
    7          6             0       -2.863232   -0.193169    2.511149
    8          1             0       -3.955895   -0.211469    2.512021
    9          1             0       -2.516826   -1.229629    2.511865
   10          6             0       -2.369398    0.504618    3.775875
   11          1             0       -1.276730    0.522897    3.774701
   12          1             0       -2.715748    1.541104    3.774810
   13          1             0       -1.280525    0.518163    1.240777
   14          6             0       -2.859078   -0.187547    5.045619
   15          1             0       -2.512493   -1.223655    5.047855
   16          1             0       -3.951472   -0.205217    5.048062
   17          6             0       -2.361561    0.515130    6.302828
   18          1             0       -2.721812    0.007614    7.194746
   19          1             0       -1.273942    0.524874    6.329055
   20          1             0       -2.712454    1.544660    6.328311
 --------------------------------------------------------------------
     1 basis functions        1 primitive gaussians
     1 alpha electrons        1 beta electrons
 
 Harmonic frequencies (cm**-1), IR intensities (KM/Mole),
 Raman scattering activities (A**4/amu), Raman depolarization ratios,
 reduced masses (AMU), force constants (mDyne/A) and normal coordinates:
                      1                      2                      3
                        a                      a                      a 
 Frequencies --    68.4130                94.2919               135.9121
 Red. masses --    99.0000                99.0000                99.0000
 Frc consts  --    99.0000                99.0000                99.0000
 IR Inten    --    99.0000                99.0000                99.0000
 Raman Activ --     0.0000                 0.0000                 0.0000
 Depolar     --     0.0000                 0.0000                 0.0000
 Atom AN      X      Y      Z        X      Y      Z        X      Y      Z
   1   6    -0.36   0.25  -0.00    -0.05   0.03  -0.00     0.17  -0.12  -0.00
   2   1    -0.22   0.04  -0.07     0.17   0.08  -0.07     0.14  -0.00   0.04
   3   1    -0.10   0.07  -0.00    -0.16   0.12   0.00     0.04  -0.03   0.00
   4   1    -0.11   0.20   0.07    -0.01  -0.19   0.07     0.05  -0.13  -0.05
   5   6     0.17  -0.12  -0.00    -0.23   0.16   0.00    -0.21   0.15   0.00
   6   1     0.14  -0.00   0.07    -0.22  -0.00   0.04    -0.10   0.03  -0.06
   7   6     0.22  -0.16  -0.00     0.28  -0.20   0.00    -0.34   0.24  -0.00
   8   1     0.06  -0.05   0.01     0.08  -0.16   0.06    -0.10   0.24   0.07
   9   1     0.07  -0.05  -0.01     0.18  -0.03  -0.06    -0.26   0.01  -0.07
  10   6     0.23  -0.16  -0.00     0.29  -0.20  -0.00     0.33  -0.24  -0.00
  11   1     0.06  -0.05   0.01     0.08  -0.16   0.06     0.10  -0.24  -0.07
  12   1     0.07  -0.05  -0.01     0.18  -0.03  -0.06     0.26  -0.01   0.07
  13   1     0.05  -0.13  -0.07    -0.07   0.21  -0.04    -0.06   0.09   0.06
  14   6     0.17  -0.12  -0.00    -0.23   0.16   0.00     0.21  -0.15   0.00
  15   1     0.14  -0.00   0.07    -0.22  -0.00   0.04     0.10  -0.03   0.06
  16   1     0.05  -0.13  -0.07    -0.07   0.21  -0.04     0.06  -0.09  -0.06
  17   6    -0.36   0.25   0.00    -0.05   0.04  -0.00    -0.17   0.12  -0.00
  18   1    -0.10   0.07  -0.00    -0.16   0.12  -0.00    -0.04   0.03   0.00
  19   1    -0.11   0.20   0.07    -0.01  -0.19   0.07    -0.05   0.13   0.04
  20   1    -0.22   0.04  -0.07     0.17   0.08  -0.07    -0.14   0.00  -0.04
                      4                      5                      6
                        a                      a                      a 
 Frequencies --   228.3932               237.9554               135.1962
 Red. masses --    99.0000                99.0000                99.0000
 Frc consts  --    99.0000                99.0000                99.0000
 IR Inten    --    99.0000                99.0000                99.0000
 Raman Activ --     0.0000                 0.0000                 0.0000
 Depolar     --     0.0000                 0.0000                 0.0000
 Atom AN      X      Y      Z        X      Y      Z        X      Y      Z
   1   6     0.03  -0.02  -0.00     0.02  -0.01   0.00    -0.23  -0.32   0.14
   2   1    -0.27  -0.11   0.22    -0.25  -0.10   0.21    -0.07  -0.10   0.11
   3   1     0.34  -0.24  -0.00     0.31  -0.22   0.00    -0.13  -0.18  -0.03
   4   1     0.01   0.29  -0.22     0.01   0.27  -0.21    -0.07  -0.10   0.11
   5   6    -0.15   0.11  -0.00    -0.16   0.11   0.00     0.04   0.06  -0.17
   6   1    -0.10   0.01  -0.01    -0.13   0.00   0.01     0.01   0.02  -0.11
   7   6     0.03  -0.02  -0.00     0.13  -0.09   0.00     0.21   0.31   0.02
   8   1     0.01  -0.07   0.02     0.04  -0.10   0.03     0.06   0.09   0.03
   9   1     0.07   0.02  -0.02     0.11  -0.00  -0.03     0.06   0.09   0.03
  10   6    -0.02   0.02  -0.00     0.13  -0.09   0.00     0.22   0.30   0.02
  11   1    -0.01   0.07  -0.02     0.04  -0.10   0.03     0.06   0.08   0.03
  12   1    -0.07  -0.02   0.02     0.11  -0.00  -0.03     0.06   0.09   0.03
  13   1    -0.05   0.09   0.01    -0.05   0.12  -0.01     0.01   0.02  -0.11
  14   6     0.15  -0.11   0.00    -0.16   0.11  -0.00     0.05   0.06  -0.17
  15   1     0.10  -0.01   0.01    -0.13   0.00   0.01     0.01   0.02  -0.11
  16   1     0.04  -0.09  -0.01    -0.05   0.12  -0.01     0.01   0.02  -0.11
  17   6    -0.03   0.02   0.00     0.02  -0.02  -0.00    -0.23  -0.32   0.14
  18   1    -0.33   0.23  -0.00     0.31  -0.22   0.00    -0.13  -0.18  -0.03
  19   1    -0.01  -0.29   0.22     0.01   0.27  -0.21    -0.07  -0.10   0.11
  20   1     0.27   0.11  -0.22    -0.26  -0.10   0.21    -0.07  -0.10   0.11
                      7                      8                      9
                        a                      a                      a 
 Frequencies --   301.6363               370.8070               465.2804
 Red. masses --    99.0000                99.0000                99.0000
 Frc consts  --    99.0000                99.0000                99.0000
 IR Inten    --    99.0000                99.0000                99.0000
 Raman Activ --     0.0000                 0.0000                 0.0000
 Depolar     --     0.0000                 0.0000                 0.0000
 Atom AN      X      Y      Z        X      Y      Z        X      Y      Z
   1   6    -0.07  -0.10   0.41     0.07   0.10   0.30     0.00   0.01   0.30
   2   1    -0.03  -0.03   0.22     0.02   0.03   0.05    -0.01  -0.00   0.18
   3   1    -0.10  -0.14   0.02     0.05   0.07   0.12    -0.07  -0.10  -0.00
   4   1    -0.02  -0.04   0.22     0.02   0.03   0.05    -0.00  -0.01   0.18
   5   6     0.20   0.28   0.06    -0.09  -0.12   0.40     0.16   0.22   0.03
   6   1     0.05   0.08  -0.00    -0.02  -0.03   0.16     0.04   0.06   0.03
   7   6     0.11   0.15  -0.08    -0.13  -0.19   0.22    -0.14  -0.20  -0.35
   8   1     0.03   0.04  -0.07    -0.04  -0.05   0.10    -0.04  -0.05  -0.17
   9   1     0.03   0.04  -0.07    -0.03  -0.05   0.10    -0.04  -0.05  -0.17
  10   6    -0.11  -0.15   0.08     0.14   0.19  -0.22    -0.14  -0.20  -0.35
  11   1    -0.03  -0.04   0.07     0.04   0.05  -0.10    -0.04  -0.05  -0.17
  12   1    -0.03  -0.04   0.07     0.03   0.05  -0.10    -0.04  -0.05  -0.17
  13   1     0.06   0.07  -0.00    -0.02  -0.03   0.16     0.04   0.06   0.03
  14   6    -0.20  -0.28  -0.06     0.09   0.12  -0.40     0.16   0.23   0.03
  15   1    -0.05  -0.08   0.00     0.02   0.03  -0.16     0.04   0.06   0.03
  16   1    -0.06  -0.07   0.00     0.02   0.03  -0.16     0.04   0.06   0.03
  17   6     0.07   0.10  -0.41    -0.07  -0.10  -0.30     0.00   0.01   0.30
  18   1     0.10   0.14  -0.02    -0.05  -0.07  -0.12    -0.07  -0.10  -0.00
  19   1     0.02   0.03  -0.22    -0.02  -0.03  -0.05    -0.00  -0.01   0.18
  20   1     0.03   0.03  -0.22    -0.02  -0.03  -0.05    -0.01  -0.00   0.18
                     10                     11                     12
                        a                      a                      a 
 Frequencies --   769.8254               786.7995               843.0798
 Red. masses --    99.0000                99.0000                99.0000
 Frc consts  --    99.0000                99.0000                99.0000
 IR Inten    --    99.0000                99.0000                99.0000
 Raman Activ --     0.0000                 0.0000                 0.0000
 Depolar     --     0.0000                 0.0000                 0.0000
 Atom AN      X      Y      Z        X      Y      Z        X      Y      Z
   1   6    -0.01   0.00  -0.00     0.03  -0.02   0.00     0.07  -0.05  -0.00
   2   1     0.07   0.02   0.06    -0.14  -0.05  -0.14    -0.17  -0.07  -0.20
   3   1     0.02  -0.02   0.00    -0.06   0.04  -0.00    -0.09   0.06  -0.00
   4   1     0.00  -0.08  -0.06    -0.00   0.15   0.14     0.01   0.19   0.20
   5   6    -0.07   0.05   0.00     0.15  -0.11  -0.00     0.14  -0.10   0.00
   6   1     0.25   0.10  -0.05    -0.34  -0.15   0.01    -0.22  -0.11  -0.12
   7   6    -0.12   0.08  -0.00     0.08  -0.06  -0.00    -0.13   0.09   0.00
   8   1    -0.02  -0.39  -0.02     0.02   0.19  -0.10    -0.03  -0.21  -0.13
   9   1     0.36   0.15   0.02    -0.18  -0.08   0.10     0.19   0.10   0.13
  10   6    -0.12   0.08   0.00    -0.08   0.06  -0.00    -0.13   0.09   0.00
  11   1    -0.02  -0.39  -0.02    -0.02  -0.19   0.10    -0.03  -0.21  -0.13
  12   1     0.36   0.15   0.02     0.18   0.08  -0.10     0.19   0.10   0.13
  13   1    -0.01  -0.27   0.05     0.03   0.37  -0.01     0.03   0.24   0.12
  14   6    -0.07   0.05  -0.00    -0.15   0.11  -0.00     0.14  -0.10  -0.00
  15   1     0.25   0.10  -0.05     0.34   0.15  -0.01    -0.22  -0.11  -0.12
  16   1    -0.01  -0.27   0.05    -0.03  -0.37   0.01     0.03   0.24   0.12
  17   6    -0.01   0.00   0.00    -0.03   0.02   0.00     0.07  -0.05  -0.00
  18   1     0.02  -0.02   0.00     0.06  -0.04   0.00    -0.09   0.06  -0.00
  19   1     0.00  -0.08  -0.06     0.00  -0.15  -0.14     0.01   0.19   0.20
  20   1     0.07   0.02   0.06     0.14   0.05   0.14    -0.17  -0.07  -0.20
                     13                     14                     15
                        a                      a                      a 
 Frequencies --   926.3818              1200.2345              1004.4170
 Red. masses --    99.0000                99.0000                99.0000
 Frc consts  --    99.0000                99.0000                99.0000
 IR Inten    --    99.0000                99.0000                99.0000
 Raman Activ --     0.0000                 0.0000                 0.0000
 Depolar     --     0.0000                 0.0000                 0.0000
 Atom AN      X      Y      Z        X      Y      Z        X      Y      Z
   1   6    -0.12   0.08   0.00    -0.17   0.12  -0.00    -0.11   0.08  -0.00
   2   1     0.17   0.08   0.22     0.12   0.08   0.15     0.12   0.06   0.16
   3   1     0.10  -0.07  -0.00     0.07  -0.05  -0.00     0.07  -0.05  -0.00
   4   1    -0.02  -0.18  -0.22    -0.03  -0.13  -0.15    -0.02  -0.13  -0.16
   5   6    -0.00   0.00  -0.00     0.26  -0.18   0.00     0.11  -0.08  -0.00
   6   1     0.01   0.00   0.25    -0.16  -0.12   0.00    -0.10  -0.06   0.24
   7   6     0.18  -0.13  -0.00    -0.27   0.19   0.00    -0.04   0.03   0.00
   8   1     0.04   0.21  -0.13    -0.06  -0.19  -0.03    -0.01  -0.04  -0.33
   9   1    -0.19  -0.11   0.13     0.16   0.12   0.03     0.04   0.02   0.33
  10   6    -0.18   0.13  -0.00     0.27  -0.19   0.00    -0.04   0.03  -0.00
  11   1    -0.04  -0.21   0.13     0.06   0.19   0.03    -0.01  -0.04  -0.33
  12   1     0.19   0.11  -0.13    -0.16  -0.12  -0.03     0.04   0.02   0.33
  13   1    -0.00  -0.01  -0.25     0.06   0.19  -0.00     0.03   0.11  -0.24
  14   6     0.00  -0.00   0.00    -0.26   0.18   0.00     0.11  -0.08   0.00
  15   1    -0.01  -0.00  -0.25     0.16   0.12  -0.00    -0.10  -0.06   0.24
  16   1     0.00   0.01   0.25    -0.06  -0.19   0.00     0.03   0.11  -0.24
  17   6     0.12  -0.08   0.00     0.17  -0.12  -0.00    -0.11   0.08   0.00
  18   1    -0.10   0.07   0.00    -0.07   0.05  -0.00     0.07  -0.05   0.00
  19   1     0.02   0.18   0.22     0.03   0.14   0.15    -0.02  -0.13  -0.16
  20   1    -0.17  -0.08  -0.22    -0.12  -0.08  -0.15     0.12   0.06   0.16
                     16                     17                     18
                        a                      a                      a 
 Frequencies --   942.1892               940.1046              1505.0356
 Red. masses --    99.0000                99.0000                99.0000
 Frc consts  --    99.0000                99.0000                99.0000
 IR Inten    --    99.0000                99.0000                99.0000
 Raman Activ --     0.0000                 0.0000                 0.0000
 Depolar     --     0.0000                 0.0000                 0.0000
 Atom AN      X      Y      Z        X      Y      Z        X      Y      Z
   1   6    -0.02  -0.02   0.31     0.06   0.09  -0.21     0.08  -0.06  -0.00
   2   1     0.03   0.01  -0.13    -0.02   0.00   0.19    -0.07  -0.03   0.20
   3   1     0.17   0.24   0.29    -0.18  -0.25  -0.29    -0.27   0.19   0.00
   4   1     0.00   0.03  -0.13     0.01  -0.01   0.19     0.01   0.08  -0.20
   5   6    -0.14  -0.19   0.04     0.09   0.13  -0.08     0.02  -0.01  -0.00
   6   1    -0.04  -0.05  -0.07     0.02   0.03   0.10    -0.01  -0.01  -0.01
   7   6     0.10   0.14  -0.27    -0.19  -0.27   0.06    -0.00   0.00   0.00
   8   1     0.03   0.04  -0.09    -0.05  -0.07   0.08    -0.00  -0.00   0.01
   9   1     0.03   0.04  -0.09    -0.05  -0.07   0.08     0.00   0.00  -0.01
  10   6     0.10   0.15  -0.27     0.19   0.27  -0.06    -0.00   0.00  -0.00
  11   1     0.03   0.04  -0.09     0.05   0.07  -0.08     0.00  -0.00   0.02
  12   1     0.03   0.04  -0.09     0.05   0.07  -0.08     0.00   0.00  -0.02
  13   1    -0.04  -0.05  -0.07     0.02   0.03   0.10     0.00   0.01   0.01
  14   6    -0.14  -0.20   0.04    -0.09  -0.13   0.07     0.03  -0.02   0.00
  15   1    -0.04  -0.05  -0.07    -0.02  -0.03  -0.10    -0.01  -0.01  -0.02
  16   1    -0.04  -0.05  -0.07    -0.02  -0.03  -0.10     0.01   0.02   0.02
  17   6    -0.02  -0.02   0.31    -0.06  -0.09   0.21     0.15  -0.11   0.00
  18   1     0.17   0.24   0.29     0.18   0.25   0.29    -0.52   0.37  -0.00
  19   1     0.00   0.03  -0.13    -0.01   0.01  -0.19     0.02   0.14  -0.39
  20   1     0.03   0.01  -0.13     0.02  -0.00  -0.19    -0.13  -0.06   0.39
                     19                     20                     21
                        a                      a                      a 
 Frequencies --  1497.0360              1496.3530              1503.1774
 Red. masses --    99.0000                99.0000                99.0000
 Frc consts  --    99.0000                99.0000                99.0000
 IR Inten    --    99.0000                99.0000                99.0000
 Raman Activ --     0.0000                 0.0000                 0.0000
 Depolar     --     0.0000                 0.0000                 0.0000
 Atom AN      X      Y      Z        X      Y      Z        X      Y      Z
   1   6     0.01   0.02   0.01     0.02   0.03  -0.01     0.00   0.00  -0.02
   2   1    -0.06  -0.02  -0.01    -0.13  -0.04   0.01    -0.01  -0.00   0.02
   3   1     0.00   0.00   0.00     0.03   0.04   0.03     0.02   0.02   0.02
   4   1     0.00  -0.06  -0.01     0.00  -0.14   0.02     0.00  -0.01   0.02
   5   6    -0.08  -0.12   0.02    -0.08  -0.11  -0.02     0.09   0.12  -0.01
   6   1     0.34   0.11  -0.01     0.29   0.09   0.01    -0.35  -0.11   0.01
   7   6     0.07   0.11  -0.02    -0.08  -0.12  -0.03    -0.07  -0.09   0.01
   8   1     0.01  -0.31   0.02    -0.01   0.34   0.02    -0.01   0.31  -0.00
   9   1    -0.30  -0.10   0.02     0.32   0.10   0.02     0.30   0.10  -0.00
  10   6     0.07   0.10  -0.02     0.09   0.12   0.03     0.07   0.09  -0.01
  11   1     0.01  -0.29   0.02     0.01  -0.36  -0.02     0.01  -0.31   0.00
  12   1    -0.28  -0.09   0.02    -0.34  -0.11  -0.02    -0.29  -0.10   0.00
  13   1    -0.01   0.36  -0.01    -0.01   0.31   0.01     0.01  -0.37   0.01
  14   6    -0.09  -0.12   0.02     0.07   0.10   0.02    -0.09  -0.12   0.01
  15   1     0.36   0.12  -0.01    -0.27  -0.09  -0.01     0.35   0.11  -0.01
  16   1    -0.01   0.38  -0.01     0.01  -0.29  -0.01    -0.01   0.37  -0.01
  17   6     0.01   0.02   0.00    -0.02  -0.03   0.01    -0.00  -0.00   0.02
  18   1     0.00   0.00   0.00    -0.03  -0.04  -0.03    -0.01  -0.02  -0.02
  19   1     0.00  -0.07  -0.01    -0.00   0.14  -0.02    -0.00   0.00  -0.02
  20   1    -0.07  -0.02  -0.01     0.13   0.04  -0.02     0.01   0.00  -0.02
                     22                     23                     24
                        a                      a                      a 
 Frequencies --  1500.6054              1080.3882              1230.3478
 Red. masses --    99.0000                99.0000                99.0000
 Frc consts  --    99.0000                99.0000                99.0000
 IR Inten    --    99.0000                99.0000                99.0000
 Raman Activ --     0.0000                 0.0000                 0.0000
 Depolar     --     0.0000                 0.0000                 0.0000
 Atom AN      X      Y      Z        X      Y      Z        X      Y      Z
   1   6     0.03   0.04  -0.01     0.18   0.26   0.11     0.20  -0.14   0.00
   2   1    -0.14  -0.05   0.02     0.02   0.05   0.23    -0.13  -0.09  -0.17
   3   1     0.03   0.04   0.04    -0.08  -0.12  -0.12    -0.09   0.06   0.00
   4   1     0.00  -0.15   0.02     0.04   0.04   0.23     0.04   0.16   0.17
   5   6    -0.07  -0.09  -0.03    -0.20  -0.29  -0.19    -0.25   0.17  -0.00
   6   1     0.26   0.09   0.01    -0.05  -0.08   0.05     0.14   0.11   0.18
   7   6    -0.10  -0.14   0.01     0.05   0.07  -0.12     0.08  -0.06  -0.00
   8   1    -0.01   0.36  -0.00     0.01   0.01   0.12     0.02   0.06  -0.21
   9   1     0.34   0.11  -0.00     0.01   0.02   0.12    -0.05  -0.03   0.21
  10   6    -0.10  -0.14   0.01     0.05   0.07  -0.12     0.08  -0.06   0.00
  11   1    -0.01   0.36  -0.00     0.01   0.01   0.12     0.02   0.06  -0.21
  12   1     0.34   0.11  -0.00     0.01   0.02   0.12    -0.05  -0.03   0.21
  13   1    -0.01   0.27   0.01    -0.05  -0.08   0.05    -0.06  -0.16  -0.18
  14   6    -0.07  -0.09  -0.03    -0.20  -0.29  -0.19    -0.24   0.17  -0.00
  15   1     0.26   0.08   0.01    -0.05  -0.08   0.05     0.14   0.11   0.18
  16   1    -0.01   0.27   0.01    -0.05  -0.08   0.05    -0.06  -0.16  -0.18
  17   6     0.03   0.04  -0.01     0.18   0.26   0.11     0.20  -0.14   0.00
  18   1     0.03   0.04   0.04    -0.08  -0.12  -0.12    -0.09   0.06  -0.00
  19   1     0.00  -0.15   0.02     0.04   0.04   0.23     0.04   0.16   0.17
  20   1    -0.14  -0.05   0.02     0.02   0.05   0.23    -0.13  -0.09  -0.17
                     25                     26                     27
                        a                      a                      a 
 Frequencies --  1074.7554              1150.1714              1268.8309
 Red. masses --    99.0000                99.0000                99.0000
 Frc consts  --    99.0000                99.0000                99.0000
 IR Inten    --    99.0000                99.0000                99.0000
 Raman Activ --     0.0000                 0.0000                 0.0000
 Depolar     --     0.0000                 0.0000                 0.0000
 Atom AN      X      Y      Z        X      Y      Z        X      Y      Z
   1   6    -0.12  -0.18  -0.28     0.11   0.15  -0.07    -0.14   0.10  -0.00
   2   1    -0.04  -0.05  -0.10    -0.01   0.02   0.17     0.08   0.06   0.11
   3   1    -0.03  -0.04  -0.07    -0.09  -0.13  -0.16     0.04  -0.03  -0.00
   4   1    -0.03  -0.05  -0.10     0.02  -0.00   0.17    -0.03  -0.10  -0.11
   5   6     0.12   0.17   0.32    -0.21  -0.30   0.09     0.01  -0.01   0.00
   6   1     0.04   0.05   0.10    -0.05  -0.07   0.12    -0.00  -0.01  -0.42
   7   6     0.14   0.20   0.29     0.21   0.30  -0.09     0.16  -0.11   0.00
   8   1     0.04   0.06   0.08     0.05   0.07  -0.04     0.04   0.10  -0.05
   9   1     0.05   0.06   0.08     0.05   0.07  -0.04    -0.08  -0.07   0.04
  10   6    -0.14  -0.20  -0.29    -0.21  -0.30   0.09    -0.16   0.11   0.00
  11   1    -0.04  -0.06  -0.08    -0.05  -0.07   0.04    -0.04  -0.10   0.05
  12   1    -0.05  -0.06  -0.08    -0.05  -0.07   0.04     0.08   0.07  -0.05
  13   1     0.03   0.05   0.10    -0.05  -0.07   0.12     0.00   0.01   0.42
  14   6    -0.12  -0.17  -0.32     0.21   0.30  -0.09    -0.01   0.01  -0.00
  15   1    -0.04  -0.05  -0.10     0.05   0.07  -0.12     0.00   0.01   0.42
  16   1    -0.03  -0.05  -0.10     0.05   0.07  -0.12    -0.00  -0.01  -0.42
  17   6     0.13   0.18   0.28    -0.11  -0.15   0.07     0.14  -0.10   0.00
  18   1     0.03   0.04   0.07     0.09   0.13   0.16    -0.04   0.03  -0.00
  19   1     0.03   0.05   0.10    -0.02   0.00  -0.17     0.03   0.10   0.11
  20   1     0.04   0.05   0.10     0.01  -0.02  -0.17    -0.08  -0.06  -0.11
                     28                     29                     30
                        a                      a                      a 
 Frequencies --  1118.7911              1108.8946              1416.3262
 Red. masses --    99.0000                99.0000                99.0000
 Frc consts  --    99.0000                99.0000                99.0000
 IR Inten    --    99.0000                99.0000                99.0000
 Raman Activ --     0.0000                 0.0000                 0.0000
 Depolar     --     0.0000                 0.0000                 0.0000
 Atom AN      X      Y      Z        X      Y      Z        X      Y      Z
   1   6    -0.06  -0.08  -0.21     0.09   0.13   0.11    -0.10  -0.15  -0.30
   2   1    -0.03  -0.03   0.00     0.02   0.03   0.07     0.18   0.04   0.37
   3   1    -0.06  -0.09  -0.11     0.00   0.00   0.00     0.20   0.28   0.22
   4   1    -0.02  -0.04   0.00     0.02   0.03   0.07    -0.02   0.18   0.37
   5   6    -0.05  -0.07   0.38    -0.01  -0.02  -0.26    -0.00  -0.00   0.06
   6   1    -0.01  -0.02   0.26     0.00  -0.00  -0.18     0.04   0.01  -0.06
   7   6     0.12   0.17  -0.26     0.09   0.13   0.41    -0.01  -0.02   0.02
   8   1     0.03   0.06  -0.05     0.02   0.04   0.24    -0.00  -0.01  -0.03
   9   1     0.04   0.05  -0.05     0.03   0.04   0.24    -0.00  -0.01  -0.03
  10   6     0.12   0.17  -0.26    -0.10  -0.14  -0.41     0.01   0.02  -0.03
  11   1     0.03   0.06  -0.05    -0.03  -0.04  -0.24     0.00   0.00   0.03
  12   1     0.04   0.05  -0.05    -0.03  -0.04  -0.24     0.00   0.00   0.03
  13   1    -0.01  -0.02   0.26    -0.00   0.00  -0.18     0.00   0.04  -0.06
  14   6    -0.05  -0.07   0.38     0.01   0.02   0.26     0.00   0.00  -0.04
  15   1    -0.01  -0.02   0.26    -0.00   0.00   0.18    -0.03  -0.01   0.04
  16   1    -0.01  -0.02   0.26     0.00  -0.00   0.18    -0.00  -0.03   0.04
  17   6    -0.06  -0.08  -0.21    -0.09  -0.13  -0.11     0.08   0.11   0.22
  18   1    -0.06  -0.09  -0.11    -0.00  -0.00  -0.00    -0.14  -0.20  -0.16
  19   1    -0.02  -0.04   0.00    -0.02  -0.03  -0.07     0.01  -0.13  -0.27
  20   1    -0.03  -0.03   0.00    -0.02  -0.03  -0.07    -0.13  -0.03  -0.27
                     31                     32                     33
                        a                      a                      a 
 Frequencies --  1508.3581              1505.0703              1261.1725
 Red. masses --    99.0000                99.0000                99.0000
 Frc consts  --    99.0000                99.0000                99.0000
 IR Inten    --    99.0000                99.0000                99.0000
 Raman Activ --     0.0000                 0.0000                 0.0000
 Depolar     --     0.0000                 0.0000                 0.0000
 Atom AN      X      Y      Z        X      Y      Z        X      Y      Z
   1   6    -0.07  -0.09   0.07    -0.15   0.11   0.00    -0.07  -0.10   0.05
   2   1     0.37   0.13  -0.09     0.13   0.07  -0.39     0.02  -0.01  -0.07
   3   1    -0.10  -0.14  -0.11     0.52  -0.37  -0.00     0.06   0.08   0.10
   4   1    -0.01   0.39  -0.09    -0.02  -0.14   0.39    -0.01   0.02  -0.07
   5   6    -0.03  -0.04   0.03    -0.03   0.02   0.00     0.09   0.13  -0.16
   6   1     0.06   0.01  -0.02     0.01   0.01   0.02     0.01   0.03   0.18
   7   6    -0.02  -0.03  -0.02     0.00   0.00   0.00    -0.04  -0.06  -0.21
   8   1    -0.00   0.11   0.01    -0.00  -0.00  -0.02    -0.01  -0.01   0.37
   9   1     0.11   0.04   0.01    -0.00   0.00   0.02    -0.01  -0.01   0.37
  10   6     0.02   0.03   0.02     0.00  -0.00  -0.00    -0.04  -0.06  -0.21
  11   1     0.00  -0.13  -0.01     0.00   0.00   0.01    -0.01  -0.01   0.37
  12   1    -0.12  -0.04  -0.01    -0.00  -0.00  -0.01    -0.01  -0.01   0.37
  13   1    -0.01   0.06  -0.02    -0.01  -0.01  -0.02     0.02   0.02   0.18
  14   6     0.04   0.05  -0.04     0.02  -0.01   0.00     0.09   0.13  -0.16
  15   1    -0.08  -0.02   0.02    -0.00  -0.01  -0.01     0.01   0.03   0.18
  16   1     0.01  -0.08   0.02     0.00   0.01   0.01     0.02   0.02   0.18
  17   6     0.08   0.11  -0.08     0.08  -0.06   0.00    -0.07  -0.10   0.05
  18   1     0.12   0.17   0.13    -0.27   0.19  -0.00     0.06   0.08   0.10
  19   1     0.01  -0.46   0.10     0.01   0.08  -0.20    -0.01   0.02  -0.07
  20   1    -0.43  -0.15   0.10    -0.07  -0.03   0.20     0.02  -0.01  -0.07
                     34                     35                     36
                        a                      a                      a 
 Frequencies --  1508.0931              1293.2547              1284.3238
 Red. masses --    99.0000                99.0000                99.0000
 Frc consts  --    99.0000                99.0000                99.0000
 IR Inten    --    99.0000                99.0000                99.0000
 Raman Activ --     0.0000                 0.0000                 0.0000
 Depolar     --     0.0000                 0.0000                 0.0000
 Atom AN      X      Y      Z        X      Y      Z        X      Y      Z
   1   6    -0.08  -0.11   0.08     0.08  -0.05   0.00    -0.04   0.03  -0.00
   2   1     0.43   0.14  -0.10    -0.04  -0.03  -0.06     0.03   0.02   0.03
   3   1    -0.12  -0.17  -0.13    -0.01   0.01  -0.00     0.03  -0.02  -0.00
   4   1    -0.01   0.45  -0.10     0.02   0.05   0.06    -0.01  -0.04  -0.03
   5   6    -0.05  -0.07   0.04     0.08  -0.06  -0.00     0.11  -0.08   0.00
   6   1     0.14   0.04  -0.02    -0.04  -0.03   0.37    -0.05  -0.05   0.04
   7   6    -0.02  -0.03  -0.01    -0.15   0.11   0.00     0.12  -0.08  -0.00
   8   1    -0.00   0.09   0.00    -0.04  -0.09   0.26     0.03   0.07   0.46
   9   1     0.09   0.03   0.00     0.07   0.06  -0.26    -0.06  -0.05  -0.46
  10   6    -0.02  -0.03  -0.01    -0.15   0.10   0.00    -0.12   0.09  -0.00
  11   1    -0.00   0.08   0.00    -0.04  -0.08   0.27    -0.03  -0.07  -0.46
  12   1     0.07   0.02   0.00     0.07   0.06  -0.27     0.06   0.05   0.46
  13   1    -0.01   0.14  -0.02     0.02   0.05  -0.37     0.03   0.06  -0.04
  14   6    -0.05  -0.07   0.03     0.08  -0.06  -0.00    -0.11   0.08  -0.00
  15   1     0.13   0.04  -0.02    -0.04  -0.03   0.37     0.05   0.05  -0.03
  16   1    -0.01   0.13  -0.02     0.02   0.05  -0.37    -0.03  -0.06   0.03
  17   6    -0.06  -0.09   0.07     0.08  -0.05   0.00     0.04  -0.03  -0.00
  18   1    -0.10  -0.14  -0.11    -0.01   0.01   0.00    -0.03   0.02  -0.00
  19   1    -0.01   0.38  -0.09     0.02   0.04   0.05     0.01   0.04   0.03
  20   1     0.36   0.12  -0.09    -0.04  -0.03  -0.05    -0.03  -0.02  -0.03
                     37                     38                     39
                        a                      a                      a 
 Frequencies --  1319.9239              1416.3901              1364.5398
 Red. masses --    99.0000                99.0000                99.0000
 Frc consts  --    99.0000                99.0000                99.0000
 IR Inten    --    99.0000                99.0000                99.0000
 Raman Activ --     0.0000                 0.0000                 0.0000
 Depolar     --     0.0000                 0.0000                 0.0000
 Atom AN      X      Y      Z        X      Y      Z        X      Y      Z
   1   6     0.07   0.09  -0.04    -0.07  -0.10  -0.22     0.04   0.06  -0.03
   2   1    -0.05  -0.00   0.01     0.12   0.03   0.27    -0.06  -0.01  -0.02
   3   1    -0.07  -0.09  -0.11     0.14   0.20   0.16    -0.05  -0.08  -0.09
   4   1     0.01  -0.04   0.01    -0.01   0.13   0.27     0.01  -0.06  -0.02
   5   6    -0.03  -0.04   0.29    -0.00  -0.00   0.06     0.02   0.02   0.34
   6   1    -0.01  -0.01  -0.34     0.03   0.01  -0.06    -0.02  -0.00  -0.33
   7   6    -0.05  -0.07   0.16    -0.00  -0.00  -0.03    -0.03  -0.04  -0.20
   8   1    -0.01   0.01  -0.22    -0.00  -0.00   0.02    -0.01   0.02   0.21
   9   1     0.01  -0.01  -0.22    -0.00  -0.00   0.02     0.02  -0.00   0.21
  10   6     0.05   0.07  -0.15    -0.01  -0.01  -0.02    -0.03  -0.04  -0.20
  11   1     0.01  -0.01   0.22    -0.00  -0.01   0.01    -0.01   0.02   0.21
  12   1    -0.01   0.01   0.22    -0.00  -0.00   0.01     0.02  -0.00   0.21
  13   1    -0.01  -0.01  -0.34     0.00   0.03  -0.06     0.00  -0.02  -0.33
  14   6     0.03   0.04  -0.29    -0.00  -0.00   0.08     0.02   0.02   0.34
  15   1     0.01   0.01   0.35     0.04   0.01  -0.07    -0.02  -0.00  -0.33
  16   1     0.01   0.01   0.35     0.00   0.04  -0.07     0.00  -0.02  -0.33
  17   6    -0.07  -0.09   0.04    -0.10  -0.15  -0.30     0.04   0.06  -0.03
  18   1     0.07   0.09   0.11     0.20   0.28   0.22    -0.05  -0.08  -0.09
  19   1    -0.01   0.04  -0.01    -0.02   0.18   0.37     0.01  -0.06  -0.02
  20   1     0.05   0.00  -0.01     0.17   0.04   0.37    -0.06  -0.01  -0.02
                     40                     41                     42
                        a                      a                      a 
 Frequencies --  1380.0345              2953.2749              2958.3018
 Red. masses --    99.0000                99.0000                99.0000
 Frc consts  --    99.0000                99.0000                99.0000
 IR Inten    --    99.0000                99.0000                99.0000
 Raman Activ --     0.0000                 0.0000                 0.0000
 Depolar     --     0.0000                 0.0000                 0.0000
 Atom AN      X      Y      Z        X      Y      Z        X      Y      Z
   1   6     0.01   0.01  -0.05     0.00  -0.00  -0.00    -0.01   0.01   0.00
   2   1    -0.02  -0.01   0.01    -0.00   0.01   0.00     0.01  -0.03  -0.00
   3   1    -0.01  -0.01  -0.02     0.00  -0.00   0.00    -0.00   0.00   0.00
   4   1     0.00  -0.03   0.01    -0.01  -0.00  -0.00     0.03   0.00   0.00
   5   6     0.02   0.02   0.24    -0.06   0.04  -0.00     0.13  -0.09   0.00
   6   1    -0.02  -0.00  -0.19     0.05  -0.18   0.00    -0.11   0.35  -0.00
   7   6     0.01   0.01  -0.39     0.15  -0.11  -0.00    -0.11   0.08   0.00
   8   1     0.00  -0.01   0.33    -0.44  -0.02  -0.00     0.31   0.01  -0.00
   9   1    -0.01   0.00   0.33    -0.13   0.42   0.00     0.09  -0.29   0.00
  10   6    -0.01  -0.01   0.39    -0.15   0.11   0.00    -0.11   0.08   0.00
  11   1    -0.00   0.01  -0.33     0.44   0.02   0.00     0.31   0.01  -0.00
  12   1     0.01  -0.00  -0.33     0.13  -0.42  -0.00     0.09  -0.29   0.00
  13   1     0.00  -0.02  -0.19     0.19   0.01  -0.00    -0.37  -0.01   0.00
  14   6    -0.02  -0.02  -0.24     0.06  -0.04  -0.00     0.13  -0.09  -0.00
  15   1     0.02   0.00   0.19    -0.05   0.18  -0.00    -0.11   0.35  -0.00
  16   1    -0.00   0.02   0.19    -0.19  -0.01   0.00    -0.36  -0.01   0.00
  17   6    -0.01  -0.01   0.05    -0.00   0.00   0.00    -0.01   0.01   0.00
  18   1     0.01   0.01   0.02    -0.00   0.00  -0.00    -0.00   0.00  -0.00
  19   1    -0.00   0.03  -0.01     0.01   0.00   0.00     0.03   0.00   0.00
  20   1     0.03   0.01  -0.01     0.00  -0.01  -0.00     0.01  -0.03  -0.00
                     43                     44                     45
                        a                      a                      a 
 Frequencies --  2966.4918              3029.4112              3031.7884
 Red. masses --    99.0000                99.0000                99.0000
 Frc consts  --    99.0000                99.0000                99.0000
 IR Inten    --    99.0000                99.0000                99.0000
 Raman Activ --     0.0000                 0.0000                 0.0000
 Depolar     --     0.0000                 0.0000                 0.0000
 Atom AN      X      Y      Z        X      Y      Z        X      Y      Z
   1   6     0.02  -0.01  -0.00     0.20  -0.14  -0.00    -0.10  -0.15   0.10
   2   1    -0.02   0.05   0.00    -0.17   0.53   0.00    -0.14   0.32   0.02
   3   1     0.00  -0.00   0.00     0.03  -0.02   0.00     0.16   0.22  -0.39
   4   1    -0.06  -0.00  -0.00    -0.56  -0.02  -0.00     0.35  -0.02   0.02
   5   6    -0.16   0.11  -0.00     0.03  -0.02   0.00    -0.01  -0.02   0.00
   6   1     0.13  -0.41  -0.00    -0.02   0.07  -0.00    -0.02   0.06  -0.00
   7   6    -0.07   0.05   0.00     0.01  -0.01  -0.00    -0.01  -0.01   0.00
   8   1     0.19   0.01   0.00    -0.03  -0.00   0.00     0.04  -0.00  -0.00
   9   1     0.06  -0.18  -0.00    -0.01   0.03  -0.00    -0.02   0.04  -0.00
  10   6     0.07  -0.05  -0.00     0.01  -0.01   0.00    -0.01  -0.01   0.00
  11   1    -0.18  -0.01  -0.00    -0.02  -0.00   0.00     0.04  -0.00  -0.00
  12   1    -0.06   0.17   0.00    -0.01   0.02  -0.00    -0.02   0.04  -0.00
  13   1     0.44   0.02   0.00    -0.07  -0.00   0.00     0.06  -0.00  -0.00
  14   6     0.16  -0.11  -0.00     0.02  -0.01   0.00    -0.01  -0.02   0.00
  15   1    -0.13   0.42   0.00    -0.02   0.05  -0.00    -0.02   0.05  -0.00
  16   1    -0.44  -0.02  -0.00    -0.05  -0.00   0.00     0.06  -0.00  -0.00
  17   6    -0.02   0.01   0.00     0.13  -0.09   0.00    -0.10  -0.14   0.09
  18   1    -0.00   0.00  -0.00     0.02  -0.01  -0.00     0.14   0.20  -0.36
  19   1     0.06   0.00   0.00    -0.37  -0.01  -0.00     0.34  -0.02   0.02
  20   1     0.02  -0.06  -0.00    -0.11   0.35   0.00    -0.13   0.32   0.02
                     46                     47                     48
                        a                      a                      a 
 Frequencies --  3031.2801              3028.9342              2979.2796
 Red. masses --    99.0000                99.0000                99.0000
 Frc consts  --    99.0000                99.0000                99.0000
 IR Inten    --    99.0000                99.0000                99.0000
 Raman Activ --     0.0000                 0.0000                 0.0000
 Depolar     --     0.0000                 0.0000                 0.0000
 Atom AN      X      Y      Z        X      Y      Z        X      Y      Z
   1   6    -0.10  -0.14   0.09    -0.13   0.09   0.00    -0.01  -0.01   0.01
   2   1    -0.14   0.32   0.02     0.11  -0.35  -0.00    -0.01   0.04   0.00
   3   1     0.14   0.20  -0.36    -0.02   0.01  -0.00     0.01   0.02  -0.04
   4   1     0.34  -0.02   0.02     0.37   0.01   0.00     0.04  -0.00   0.00
   5   6    -0.01  -0.02   0.00    -0.02   0.01   0.00     0.08   0.12  -0.00
   6   1    -0.02   0.04  -0.00     0.01  -0.04   0.00     0.18  -0.45   0.00
   7   6    -0.00  -0.00   0.00    -0.00   0.00   0.00     0.01   0.01  -0.00
   8   1     0.02  -0.00  -0.00     0.01   0.00  -0.00    -0.01   0.00   0.00
   9   1    -0.01   0.02  -0.00     0.00  -0.01   0.00     0.01  -0.01   0.00
  10   6     0.00   0.01  -0.00     0.01  -0.00  -0.00    -0.00  -0.01   0.00
  11   1    -0.02   0.00   0.00    -0.02  -0.00   0.00     0.01  -0.00  -0.00
  12   1     0.01  -0.02   0.00    -0.00   0.02  -0.00    -0.00   0.00  -0.00
  13   1     0.05  -0.00  -0.00     0.04   0.00  -0.00    -0.48   0.02   0.00
  14   6     0.01   0.02  -0.00     0.03  -0.02  -0.00    -0.08  -0.12   0.00
  15   1     0.02  -0.05   0.00    -0.02   0.06  -0.00    -0.18   0.45  -0.00
  16   1    -0.05   0.00   0.00    -0.07  -0.00   0.00     0.49  -0.02  -0.00
  17   6     0.11   0.15  -0.10     0.20  -0.14   0.00     0.01   0.01  -0.01
  18   1    -0.15  -0.21   0.37     0.03  -0.02   0.00    -0.01  -0.02   0.04
  19   1    -0.37   0.02  -0.02    -0.56  -0.02  -0.00    -0.04   0.00  -0.00
  20   1     0.14  -0.34  -0.02    -0.17   0.53   0.00     0.01  -0.03  -0.00
                     49                     50                     51
                        a                      a                      a 
 Frequencies --  2973.3668              2975.4512              2973.0811
 Red. masses --    99.0000                99.0000                99.0000
 Frc consts  --    99.0000                99.0000                99.0000
 IR Inten    --    99.0000                99.0000                99.0000
 Raman Activ --     0.0000                 0.0000                 0.0000
 Depolar     --     0.0000                 0.0000                 0.0000
 Atom AN      X      Y      Z        X      Y      Z        X      Y      Z
   1   6    -0.00  -0.00   0.00     0.02  -0.01  -0.00    -0.01  -0.01   0.00
   2   1    -0.00   0.01   0.00    -0.02   0.06   0.00    -0.01   0.02   0.00
   3   1     0.00   0.01  -0.01     0.00  -0.00   0.00     0.00   0.01  -0.01
   4   1     0.01  -0.00   0.00    -0.06  -0.00  -0.00     0.02  -0.00   0.00
   5   6     0.06   0.08   0.00    -0.11   0.08  -0.00     0.01   0.01  -0.00
   6   1     0.13  -0.32   0.00     0.09  -0.29   0.00     0.01  -0.02  -0.00
   7   6    -0.07  -0.10  -0.00    -0.14   0.10   0.00     0.07   0.11  -0.00
   8   1     0.39  -0.01  -0.00     0.37   0.01   0.00    -0.45   0.02  -0.00
   9   1    -0.15   0.37  -0.00     0.11  -0.35  -0.00     0.16  -0.42  -0.00
  10   6    -0.05  -0.07  -0.00    -0.14   0.10   0.00    -0.09  -0.12   0.00
  11   1     0.29  -0.01  -0.00     0.37   0.01   0.00     0.52  -0.02  -0.00
  12   1    -0.11   0.28  -0.00     0.11  -0.34  -0.00    -0.19   0.49  -0.00
  13   1    -0.35   0.01   0.00     0.30   0.01  -0.00    -0.02   0.00  -0.00
  14   6     0.06   0.08   0.00    -0.11   0.08   0.00     0.01   0.01   0.00
  15   1     0.12  -0.31   0.00     0.09  -0.29   0.00     0.02  -0.04   0.00
  16   1    -0.34   0.01   0.00     0.30   0.01  -0.00    -0.05   0.00   0.00
  17   6    -0.00  -0.00   0.00     0.02  -0.01  -0.00     0.00   0.01  -0.00
  18   1     0.01   0.01  -0.01     0.00  -0.00   0.00    -0.00  -0.01   0.01
  19   1     0.01  -0.00   0.00    -0.06  -0.00  -0.00    -0.02   0.00   0.00
  20   1    -0.00   0.01   0.00    -0.02   0.06   0.00     0.01  -0.02   0.00
                     52                     53                     54
                        a                      a                      a 
 Frequencies --  2985.9786              3037.0446              3036.5842
 Red. masses --    99.0000                99.0000                99.0000
 Frc consts  --    99.0000                99.0000                99.0000
 IR Inten    --    99.0000                99.0000                99.0000
 Raman Activ --     0.0000                 0.0000                 0.0000
 Depolar     --     0.0000                 0.0000                 0.0000
 Atom AN      X      Y      Z        X      Y      Z        X      Y      Z
   1   6     0.01   0.02  -0.01    -0.01  -0.02  -0.11     0.01   0.02   0.10
   2   1     0.02  -0.05  -0.00    -0.12   0.32  -0.01     0.11  -0.32   0.01
   3   1    -0.02  -0.03   0.05    -0.18  -0.26   0.42     0.17   0.24  -0.39
   4   1    -0.06   0.00  -0.00     0.34  -0.00  -0.01    -0.33   0.00   0.01
   5   6    -0.06  -0.09   0.00    -0.00  -0.00  -0.00     0.00   0.00   0.00
   6   1    -0.13   0.32  -0.00    -0.00   0.00  -0.00     0.00  -0.01   0.00
   7   6    -0.06  -0.09   0.00    -0.00  -0.00   0.00     0.00   0.00  -0.00
   8   1     0.34  -0.01   0.00     0.01  -0.00  -0.00    -0.01   0.00  -0.00
   9   1    -0.13   0.32   0.00    -0.00   0.01  -0.00     0.00  -0.01  -0.00
  10   6    -0.06  -0.09   0.00     0.00   0.00  -0.00     0.00   0.00  -0.00
  11   1     0.34  -0.01   0.00    -0.01   0.00   0.00    -0.01   0.00  -0.00
  12   1    -0.13   0.32   0.00     0.00  -0.00   0.00     0.00  -0.01  -0.00
  13   1     0.34  -0.01  -0.00     0.00  -0.00  -0.00    -0.01   0.00   0.00
  14   6    -0.06  -0.09   0.00     0.00   0.00   0.00     0.00   0.00   0.00
  15   1    -0.13   0.32  -0.00     0.00   0.00   0.00     0.00  -0.01   0.00
  16   1     0.34  -0.01  -0.00     0.00   0.00   0.00    -0.01   0.00   0.00
  17   6     0.01   0.02  -0.01     0.01   0.01   0.11     0.01   0.02   0.11
  18   1    -0.02  -0.03   0.05     0.18   0.25  -0.41     0.18   0.26  -0.42
  19   1    -0.06   0.00  -0.00    -0.32   0.00   0.01    -0.34   0.00   0.01
  20   1     0.02  -0.05  -0.00     0.11  -0.30   0.01     0.12  -0.33   0.01
