 Entering Gaussian System
 *********************************************
 Gaussian 98:
 frequency output generated by the xtb code
 *********************************************
                         Standard orientation:
 --------------------------------------------------------------------
  Center     Atomic     Atomic              Coordinates (Angstroms)
  Number     Number      Type              X           Y           Z
 --------------------------------------------------------------------
    1          6             0        2.464087    0.560995    0.033559
    2          6             0        3.847597    0.559313    0.023855
    3          6             0        4.543873    1.755668    0.018401
    4          6             0        3.847488    2.952036    0.022212
    5          6             0        2.464057    2.950233    0.031986
    6          6             0        1.754906    1.755551    0.038365
    7          1             0        1.926103   -0.376765    0.038935
    8          1             0        4.383993   -0.378690    0.022051
    9          1             0        5.624001    1.755721    0.012733
   10          1             0        4.383853    3.890054    0.019295
   11          1             0        1.925850    3.887873    0.036159
   12          6             0        0.255958    1.755997    0.026638
   13          1             0       -0.136199    2.636454    0.530818
   14          1             0       -0.108162    1.766826   -1.001513
   15          1             0       -0.136810    0.865786    0.512774
 --------------------------------------------------------------------
     1 basis functions        1 primitive gaussians
     1 alpha electrons        1 beta electrons
 
 Harmonic frequencies (cm**-1), IR intensities (KM/Mole),
 Raman scattering activities (A**4/amu), Raman depolarization ratios,
 reduced masses (AMU), force constants (mDyne/A) and normal coordinates:
                      1                      2                      3
                        a                      a                      a 
 Frequencies --    15.2891               198.3798               338.7756
 Red. masses --     1.3522                 8.9629                 8.3490
 Frc consts  --     0.0000                 0.0000                 0.0000
 IR Inten    --     0.0171                 0.0698                 0.0120
 Raman Activ --     0.0000                 0.0000                 0.0000
 Depolar     --     0.0000                 0.0000                 0.0000
 Atom AN      X      Y      Z        X      Y      Z        X      Y      Z
   1   6     0.01  -0.02   0.08     0.00   0.00  -0.38     0.13  -0.29  -0.02
   2   6     0.02   0.00   0.08     0.00   0.00   0.01     0.17   0.04   0.01
   3   6     0.00   0.01   0.00     0.01   0.00   0.42    -0.00   0.14   0.00
   4   6    -0.02   0.00  -0.08     0.00  -0.00   0.01    -0.17   0.04  -0.01
   5   6    -0.01  -0.02  -0.08     0.00  -0.00  -0.38    -0.13  -0.29   0.02
   6   6     0.00  -0.03  -0.00    -0.00  -0.00  -0.28     0.00  -0.35   0.00
   7   1     0.01  -0.01   0.04    -0.00   0.00  -0.16     0.09  -0.11  -0.01
   8   1     0.01   0.00   0.04     0.00  -0.00   0.03     0.10   0.04   0.00
   9   1     0.00   0.01   0.00     0.00   0.00   0.27    -0.00   0.08   0.00
  10   1    -0.01   0.00  -0.04     0.00   0.00   0.03    -0.10   0.04  -0.00
  11   1    -0.01  -0.01  -0.04    -0.00  -0.00  -0.16    -0.09  -0.11   0.01
  12   6     0.00   0.04   0.00    -0.01   0.00   0.42     0.00   0.51  -0.00
  13   1     0.01  -0.26   0.49     0.08  -0.00   0.19     0.20   0.26  -0.04
  14   1    -0.00   0.59   0.01    -0.18  -0.00   0.18     0.00   0.19  -0.00
  15   1    -0.01  -0.25  -0.49     0.08   0.00   0.19    -0.20   0.26   0.04
                      4                      5                      6
                        a                      a                      a 
 Frequencies --   371.1334               443.3215               504.8399
 Red. masses --     8.8706                 8.7879                10.7996
 Frc consts  --     0.0000                 0.0000                 0.0000
 IR Inten    --     0.0039                 0.0225                 0.0418
 Raman Activ --     0.0000                 0.0000                 0.0000
 Depolar     --     0.0000                 0.0000                 0.0000
 Atom AN      X      Y      Z        X      Y      Z        X      Y      Z
   1   6     0.01  -0.01   0.42    -0.01  -0.02  -0.08    -0.08  -0.24  -0.00
   2   6     0.00   0.00  -0.42    -0.02  -0.01  -0.27    -0.14  -0.21   0.03
   3   6    -0.00   0.00  -0.00    -0.03   0.00   0.39    -0.48  -0.00  -0.03
   4   6    -0.00   0.00   0.42    -0.02   0.01  -0.27    -0.14   0.21   0.03
   5   6    -0.01  -0.01  -0.42    -0.01   0.02  -0.08    -0.08   0.24  -0.00
   6   6     0.00  -0.01  -0.00     0.03   0.00   0.62     0.36   0.00  -0.05
   7   1     0.00  -0.00   0.27    -0.01  -0.00  -0.16    -0.11  -0.02   0.01
   8   1     0.00   0.00  -0.27    -0.00  -0.00  -0.24     0.03  -0.02   0.02
   9   1    -0.00   0.00  -0.00    -0.01   0.00   0.19    -0.14  -0.00  -0.01
  10   1    -0.00   0.00   0.27    -0.00   0.00  -0.24     0.03   0.02   0.02
  11   1    -0.00  -0.00  -0.27    -0.01   0.00  -0.16    -0.11   0.02   0.01
  12   6     0.00   0.01  -0.00     0.05  -0.00  -0.05     0.52  -0.00   0.01
  13   1     0.00   0.01  -0.00    -0.09   0.00  -0.10     0.15  -0.00   0.01
  14   1     0.00   0.01  -0.00     0.22   0.00  -0.09     0.13  -0.00   0.01
  15   1    -0.00   0.01   0.00    -0.08  -0.00  -0.10     0.15   0.00   0.01
                      7                      8                      9
                        a                      a                      a 
 Frequencies --   593.1363               654.6867               739.9093
 Red. masses --    11.1563                10.2238                 2.7679
 Frc consts  --     0.0000                 0.0000                 0.0000
 IR Inten    --     0.0005                 0.0275                 0.2036
 Raman Activ --     0.0000                 0.0000                 0.0000
 Depolar     --     0.0000                 0.0000                 0.0000
 Atom AN      X      Y      Z        X      Y      Z        X      Y      Z
   1   6     0.33   0.28  -0.00    -0.00   0.01  -0.35     0.01  -0.01   0.16
   2   6     0.36  -0.34  -0.00     0.00   0.01   0.38     0.01  -0.02   0.14
   3   6     0.00  -0.18   0.00     0.01  -0.00  -0.36    -0.02   0.00   0.15
   4   6    -0.36  -0.34   0.00     0.00  -0.01   0.38     0.01   0.02   0.14
   5   6    -0.33   0.28   0.00    -0.00  -0.01  -0.35     0.01   0.01   0.16
   6   6    -0.00   0.16  -0.00    -0.00   0.00   0.41     0.01  -0.00  -0.19
   7   1     0.04   0.11  -0.00    -0.00   0.00  -0.21    -0.01  -0.00  -0.35
   8   1     0.05  -0.12  -0.00    -0.00   0.00   0.08     0.01  -0.00  -0.41
   9   1     0.00   0.11  -0.00     0.00  -0.00  -0.20    -0.01  -0.00  -0.47
  10   1    -0.05  -0.12   0.00    -0.00  -0.00   0.08     0.01   0.00  -0.41
  11   1    -0.04   0.11   0.00    -0.00  -0.00  -0.21    -0.01   0.00  -0.35
  12   6    -0.00   0.08  -0.00    -0.00   0.00   0.05    -0.02   0.00  -0.04
  13   1     0.02   0.03  -0.00    -0.06   0.00  -0.03     0.07  -0.01   0.05
  14   1     0.00   0.03  -0.00     0.13   0.00  -0.03    -0.16  -0.00   0.04
  15   1    -0.02   0.03   0.00    -0.06  -0.00  -0.03     0.06   0.01   0.05
                     10                     11                     12
                        a                      a                      a 
 Frequencies --   810.0614               878.0965               897.5361
 Red. masses --    10.4489                 3.3284                 3.5930
 Frc consts  --     0.0000                 0.0000                 0.0000
 IR Inten    --     0.1297                 0.0008                 0.0160
 Raman Activ --     0.0000                 0.0000                 0.0000
 Depolar     --     0.0000                 0.0000                 0.0000
 Atom AN      X      Y      Z        X      Y      Z        X      Y      Z
   1   6     0.17  -0.18  -0.01    -0.00   0.00  -0.24     0.00  -0.00  -0.24
   2   6     0.24  -0.38  -0.01    -0.00  -0.00  -0.22     0.00  -0.01   0.04
   3   6    -0.30   0.00  -0.01     0.00  -0.00   0.00    -0.00   0.00   0.34
   4   6     0.24   0.38  -0.01     0.00  -0.00   0.22     0.00   0.01   0.03
   5   6     0.17   0.18  -0.01     0.00   0.00   0.24     0.00   0.00  -0.24
   6   6     0.02   0.00   0.03     0.00   0.00  -0.00    -0.00   0.00   0.02
   7   1     0.01  -0.04   0.01     0.01  -0.00   0.46     0.01  -0.00   0.46
   8   1     0.18  -0.04   0.02     0.00   0.00   0.43     0.00  -0.00  -0.13
   9   1    -0.08   0.00   0.03    -0.00  -0.00  -0.00    -0.00  -0.00  -0.55
  10   1     0.18   0.04   0.02    -0.00  -0.00  -0.43     0.00   0.00  -0.13
  11   1     0.01   0.04   0.01    -0.01  -0.00  -0.46     0.01   0.00   0.46
  12   6    -0.49   0.00  -0.01    -0.00   0.00   0.00    -0.01  -0.00   0.04
  13   1    -0.15  -0.01   0.00    -0.00  -0.00   0.00    -0.04   0.00  -0.03
  14   1    -0.15  -0.00   0.00    -0.00  -0.00  -0.00     0.07  -0.00  -0.02
  15   1    -0.15   0.01   0.00     0.00  -0.00  -0.00    -0.04  -0.00  -0.03
                     13                     14                     15
                        a                      a                      a 
 Frequencies --   929.3358               931.4911               988.6488
 Red. masses --     4.1470                 2.8595                10.8127
 Frc consts  --     0.0000                 0.0000                 0.0000
 IR Inten    --     0.0079                 0.0070                 0.0617
 Raman Activ --     0.0000                 0.0000                 0.0000
 Depolar     --     0.0000                 0.0000                 0.0000
 Atom AN      X      Y      Z        X      Y      Z        X      Y      Z
   1   6     0.00  -0.00   0.26     0.00  -0.00   0.06    -0.19  -0.54   0.00
   2   6     0.00  -0.00  -0.28    -0.00  -0.00  -0.21    -0.03   0.15   0.00
   3   6     0.00   0.00   0.00     0.00   0.00   0.25     0.39  -0.00  -0.00
   4   6    -0.00  -0.00   0.27    -0.00   0.00  -0.22    -0.03  -0.15   0.00
   5   6    -0.00  -0.00  -0.26     0.00   0.00   0.06    -0.18   0.54   0.00
   6   6     0.00   0.00   0.00     0.00   0.00   0.05     0.15  -0.00  -0.01
   7   1    -0.01  -0.00  -0.41    -0.00   0.00  -0.23    -0.00  -0.18  -0.00
   8   1     0.01   0.00   0.44     0.00   0.00   0.47     0.08   0.08  -0.00
   9   1    -0.00   0.00  -0.01    -0.00  -0.00  -0.52     0.11  -0.00   0.00
  10   1    -0.01   0.00  -0.43     0.00  -0.00   0.48     0.08  -0.08  -0.00
  11   1     0.01   0.00   0.41    -0.00  -0.00  -0.23    -0.00   0.18  -0.00
  12   6    -0.00   0.01   0.00    -0.00  -0.00   0.02    -0.14  -0.00   0.01
  13   1    -0.01  -0.00  -0.00    -0.02   0.00  -0.01    -0.06  -0.01  -0.00
  14   1     0.00  -0.00  -0.00     0.03  -0.00  -0.01    -0.04   0.00   0.00
  15   1     0.01  -0.00   0.00    -0.02  -0.00  -0.01    -0.06   0.01  -0.00
                     16                     17                     18
                        a                      a                      a 
 Frequencies --  1007.0723              1032.1542              1086.7186
 Red. masses --     4.0139                 4.6799                 6.8381
 Frc consts  --     0.0000                 0.0000                 0.0000
 IR Inten    --     0.0832                 0.1332                 0.0893
 Raman Activ --     0.0000                 0.0000                 0.0000
 Depolar     --     0.0000                 0.0000                 0.0000
 Atom AN      X      Y      Z        X      Y      Z        X      Y      Z
   1   6    -0.01  -0.17  -0.00     0.00   0.01   0.06    -0.16  -0.00  -0.00
   2   6     0.06  -0.07   0.01     0.01  -0.02   0.03     0.06  -0.37  -0.00
   3   6     0.00   0.07  -0.00     0.00   0.00  -0.02     0.45  -0.00  -0.00
   4   6    -0.07  -0.07  -0.01     0.01   0.02   0.03     0.06   0.37  -0.00
   5   6     0.01  -0.16   0.00     0.00  -0.01   0.06    -0.16   0.00  -0.00
   6   6     0.00   0.12   0.00    -0.01  -0.00  -0.37    -0.02   0.00   0.01
   7   1     0.02  -0.06   0.00    -0.01   0.01  -0.07    -0.29   0.13   0.01
   8   1     0.09   0.02  -0.01    -0.00  -0.01  -0.05    -0.24  -0.26   0.00
   9   1     0.00   0.10  -0.00     0.00   0.00   0.01     0.13  -0.00  -0.00
  10   1    -0.09   0.02   0.01    -0.00   0.01  -0.05    -0.24   0.26   0.00
  11   1    -0.02  -0.06  -0.00    -0.01  -0.01  -0.07    -0.29  -0.13   0.01
  12   6     0.00   0.43  -0.00    -0.02   0.00   0.43     0.04   0.00  -0.02
  13   1    -0.54  -0.16   0.03    -0.30   0.04  -0.20     0.02  -0.01   0.01
  14   1    -0.01  -0.20  -0.00     0.62  -0.00  -0.12    -0.01  -0.00   0.00
  15   1     0.55  -0.16  -0.03    -0.29  -0.04  -0.20     0.02   0.01   0.01
                     19                     20                     21
                        a                      a                      a 
 Frequencies --  1126.8065              1182.8174              1201.5483
 Red. masses --     3.8254                 1.2936                 1.7413
 Frc consts  --     0.0000                 0.0000                 0.0000
 IR Inten    --     0.0637                 0.0101                 0.0940
 Raman Activ --     0.0000                 0.0000                 0.0000
 Depolar     --     0.0000                 0.0000                 0.0000
 Atom AN      X      Y      Z        X      Y      Z        X      Y      Z
   1   6     0.23   0.11   0.00     0.08  -0.00  -0.00    -0.08   0.09  -0.00
   2   6    -0.11   0.15   0.00     0.03   0.02   0.00     0.07   0.10  -0.00
   3   6    -0.00  -0.19   0.00     0.00  -0.08   0.00     0.04   0.00   0.00
   4   6     0.11   0.15  -0.00    -0.03   0.02  -0.00     0.07  -0.10  -0.00
   5   6    -0.23   0.11  -0.00    -0.08  -0.00   0.00    -0.08  -0.09  -0.00
   6   6     0.00  -0.13   0.00    -0.00   0.07  -0.00     0.08   0.00   0.00
   7   1     0.40  -0.16  -0.01    -0.13   0.09   0.00    -0.45   0.27   0.01
   8   1    -0.24  -0.08   0.00     0.40   0.23  -0.00     0.38   0.23  -0.00
   9   1    -0.00  -0.47   0.00     0.00  -0.70   0.00     0.01  -0.00  -0.00
  10   1     0.24  -0.08  -0.00    -0.41   0.23   0.00     0.37  -0.23  -0.00
  11   1    -0.40  -0.16   0.01     0.13   0.09  -0.00    -0.45  -0.27   0.01
  12   6    -0.00   0.10  -0.00     0.00   0.00   0.00    -0.03   0.00  -0.01
  13   1    -0.09  -0.02   0.01     0.00   0.00  -0.00    -0.03  -0.01   0.01
  14   1    -0.00  -0.04  -0.00    -0.00   0.00   0.00    -0.02  -0.00   0.00
  15   1     0.09  -0.02  -0.01    -0.00   0.00   0.00    -0.03   0.01   0.01
                     22                     23                     24
                        a                      a                      a 
 Frequencies --  1244.1472              1292.0333              1322.7756
 Red. masses --     8.7699                 3.4569                11.7926
 Frc consts  --     0.0000                 0.0000                 0.0000
 IR Inten    --     0.3463                 0.0011                 0.0785
 Raman Activ --     0.0000                 0.0000                 0.0000
 Depolar     --     0.0000                 0.0000                 0.0000
 Atom AN      X      Y      Z        X      Y      Z        X      Y      Z
   1   6    -0.20  -0.01   0.00    -0.20   0.08   0.00    -0.34   0.19   0.00
   2   6     0.14  -0.18  -0.00    -0.06  -0.08  -0.00     0.36   0.21  -0.00
   3   6     0.09  -0.00  -0.00    -0.00  -0.22   0.00    -0.00  -0.39   0.00
   4   6     0.14   0.18  -0.00     0.06  -0.08   0.00    -0.36   0.20   0.00
   5   6    -0.20   0.01   0.00     0.20   0.08  -0.00     0.34   0.19  -0.00
   6   6    -0.65  -0.00  -0.00    -0.00   0.23  -0.00     0.00  -0.43   0.00
   7   1     0.14  -0.13  -0.01     0.40  -0.24  -0.01    -0.04   0.02  -0.00
   8   1     0.28   0.08  -0.00     0.32   0.17  -0.00    -0.01  -0.00   0.00
   9   1     0.03  -0.00  -0.00    -0.00   0.27  -0.00    -0.00  -0.02   0.00
  10   1     0.28  -0.08  -0.00    -0.32   0.17   0.00     0.01  -0.00  -0.00
  11   1     0.14   0.13  -0.01    -0.40  -0.24   0.01     0.04   0.02   0.00
  12   6     0.30  -0.00   0.01    -0.00  -0.09   0.00    -0.00   0.07  -0.00
  13   1     0.14   0.03  -0.01     0.07   0.03  -0.02    -0.06  -0.03   0.02
  14   1     0.11   0.00  -0.01     0.00   0.05   0.00    -0.00  -0.07  -0.00
  15   1     0.14  -0.03  -0.01    -0.07   0.02   0.02     0.06  -0.03  -0.02
                     25                     26                     27
                        a                      a                      a 
 Frequencies --  1404.5401              1439.7001              1482.3939
 Red. masses --     3.1837                 8.4970                 4.6717
 Frc consts  --     0.0000                 0.0000                 0.0000
 IR Inten    --     0.1675                 0.0596                 0.2370
 Raman Activ --     0.0000                 0.0000                 0.0000
 Depolar     --     0.0000                 0.0000                 0.0000
 Atom AN      X      Y      Z        X      Y      Z        X      Y      Z
   1   6     0.01  -0.02   0.00     0.26   0.13  -0.00     0.11  -0.17  -0.00
   2   6    -0.00   0.02   0.00    -0.33   0.07   0.00     0.17   0.18  -0.00
   3   6    -0.00   0.00   0.00     0.00  -0.34   0.00    -0.17   0.00   0.00
   4   6    -0.00  -0.02   0.00     0.33   0.07  -0.00     0.17  -0.18  -0.00
   5   6     0.01   0.02   0.00    -0.26   0.13   0.00     0.11   0.17  -0.00
   6   6     0.04   0.00  -0.01    -0.00  -0.39   0.00    -0.26  -0.00   0.03
   7   1    -0.03   0.01   0.00    -0.09   0.14   0.00    -0.17   0.06   0.00
   8   1    -0.01  -0.00  -0.00     0.14   0.16  -0.00    -0.16  -0.07   0.00
   9   1    -0.00  -0.00  -0.00    -0.00   0.36  -0.00    -0.05  -0.00  -0.00
  10   1    -0.01   0.00  -0.00    -0.14   0.16   0.00    -0.16   0.07   0.00
  11   1    -0.03  -0.01   0.00     0.09   0.14  -0.00    -0.17  -0.06   0.00
  12   6    -0.44   0.00  -0.05     0.00   0.13   0.00     0.01   0.00   0.16
  13   1     0.45   0.11   0.19    -0.01  -0.04   0.09     0.20   0.29  -0.35
  14   1     0.51  -0.00  -0.20    -0.00  -0.18  -0.00    -0.17  -0.01   0.07
  15   1     0.45  -0.11   0.19     0.01  -0.03  -0.09     0.19  -0.29  -0.36
                     28                     29                     30
                        a                      a                      a 
 Frequencies --  1486.1881              1488.1296              1593.6381
 Red. masses --     1.9715                 6.1167                11.3922
 Frc consts  --     0.0000                 0.0000                 0.0000
 IR Inten    --     0.0766                 0.2623                 0.0468
 Raman Activ --     0.0000                 0.0000                 0.0000
 Depolar     --     0.0000                 0.0000                 0.0000
 Atom AN      X      Y      Z        X      Y      Z        X      Y      Z
   1   6    -0.08   0.01   0.00    -0.09   0.18  -0.00    -0.15   0.28   0.00
   2   6     0.03  -0.07   0.00    -0.23  -0.19   0.00    -0.13  -0.30   0.00
   3   6     0.01   0.14  -0.00     0.21  -0.01  -0.00     0.00   0.54  -0.00
   4   6    -0.06  -0.05   0.00    -0.22   0.20   0.00     0.12  -0.30  -0.00
   5   6     0.06  -0.02  -0.00    -0.10  -0.18  -0.00     0.15   0.28  -0.00
   6   6     0.02   0.09   0.00     0.34  -0.01   0.02    -0.00  -0.50   0.00
   7   1     0.05  -0.04  -0.00     0.15  -0.05   0.00     0.08   0.00  -0.00
   8   1     0.00  -0.03  -0.00     0.18   0.08   0.00     0.07  -0.02  -0.00
   9   1     0.00  -0.08   0.00     0.06   0.01  -0.00     0.00  -0.13   0.00
  10   1     0.02  -0.04   0.00     0.17  -0.08   0.00    -0.07  -0.02   0.00
  11   1    -0.03  -0.03   0.00     0.16   0.05  -0.00    -0.08   0.00   0.00
  12   6    -0.01   0.19   0.01    -0.15  -0.01   0.14    -0.00   0.03  -0.00
  13   1     0.28  -0.06   0.35     0.12   0.26  -0.33    -0.07  -0.01  -0.04
  14   1    -0.01  -0.68  -0.00    -0.18   0.04   0.07    -0.00   0.05   0.00
  15   1    -0.27  -0.08  -0.38     0.15  -0.25  -0.30     0.07  -0.01   0.04
                     31                     32                     33
                        a                      a                      a 
 Frequencies --  1608.7583              2994.2185              3034.7923
 Red. masses --    11.4754                 1.8006                 1.9097
 Frc consts  --     0.0000                 0.0000                 0.0000
 IR Inten    --     0.3482                 0.1710                 0.1562
 Raman Activ --     0.0000                 0.0000                 0.0000
 Depolar     --     0.0000                 0.0000                 0.0000
 Atom AN      X      Y      Z        X      Y      Z        X      Y      Z
   1   6     0.45  -0.14  -0.00    -0.00  -0.00   0.00     0.01   0.01  -0.00
   2   6    -0.41  -0.12   0.00     0.00   0.00  -0.00     0.00  -0.00   0.00
   3   6     0.20  -0.00  -0.00    -0.00   0.00  -0.00     0.00   0.00   0.00
   4   6    -0.42   0.12   0.00     0.00  -0.00  -0.00    -0.00  -0.00   0.00
   5   6     0.44   0.14  -0.00    -0.00   0.00  -0.00    -0.01   0.02   0.00
   6   6    -0.32   0.00  -0.00     0.01  -0.00   0.01     0.00  -0.01  -0.00
   7   1    -0.09   0.08   0.00     0.00   0.00   0.00    -0.03  -0.05   0.00
   8   1     0.07   0.07  -0.00     0.00  -0.00  -0.00    -0.00   0.01  -0.00
   9   1     0.05   0.00  -0.00    -0.00   0.00   0.00    -0.00   0.00  -0.00
  10   1     0.07  -0.07  -0.00     0.00   0.00  -0.00     0.00   0.01  -0.00
  11   1    -0.09  -0.08   0.00     0.00  -0.01   0.00     0.04  -0.06  -0.00
  12   6     0.05   0.00  -0.01     0.06  -0.00   0.26     0.04  -0.28  -0.04
  13   1     0.00  -0.01   0.02     0.05  -0.10  -0.01    -0.30   0.67   0.40
  14   1     0.02  -0.00  -0.01    -0.31   0.01  -0.90    -0.01  -0.04  -0.05
  15   1     0.00   0.01   0.02     0.05   0.09  -0.01     0.17   0.36  -0.22
                     34                     35                     36
                        a                      a                      a 
 Frequencies --  3036.0604              3066.6088              3067.0235
 Red. masses --     1.4268                 1.7823                 1.7502
 Frc consts  --     0.0000                 0.0000                 0.0000
 IR Inten    --     0.1515                 0.1067                 0.1692
 Raman Activ --     0.0000                 0.0000                 0.0000
 Depolar     --     0.0000                 0.0000                 0.0000
 Atom AN      X      Y      Z        X      Y      Z        X      Y      Z
   1   6     0.01   0.01  -0.00     0.08   0.14  -0.00    -0.06  -0.11   0.00
   2   6     0.00  -0.00  -0.00     0.05  -0.09  -0.00    -0.05   0.10   0.00
   3   6    -0.00   0.00  -0.00    -0.00  -0.00   0.00     0.08  -0.00  -0.00
   4   6    -0.00  -0.00  -0.00    -0.05  -0.08   0.00    -0.06  -0.10   0.00
   5   6     0.00  -0.00   0.00    -0.08   0.13   0.00    -0.07   0.12   0.00
   6   6    -0.01  -0.00   0.00     0.00   0.01  -0.00    -0.01   0.00   0.00
   7   1    -0.02  -0.04   0.00    -0.29  -0.51   0.00     0.23   0.40  -0.00
   8   1    -0.00   0.00   0.00    -0.19   0.33   0.00     0.21  -0.37  -0.00
   9   1     0.00   0.00   0.00     0.01   0.00  -0.00    -0.31   0.00   0.00
  10   1     0.00   0.00   0.00     0.17   0.30  -0.00     0.22   0.39  -0.00
  11   1    -0.00   0.01   0.00     0.28  -0.48  -0.00     0.25  -0.43  -0.00
  12   6    -0.13  -0.08   0.12     0.00   0.02  -0.00    -0.00   0.00   0.00
  13   1     0.15  -0.39  -0.20     0.02  -0.04  -0.03     0.01  -0.02  -0.01
  14   1     0.03  -0.01   0.16    -0.00   0.00  -0.00     0.00   0.00   0.01
  15   1     0.28   0.70  -0.37    -0.02  -0.05   0.03     0.01   0.01  -0.01
                     37                     38                     39
                        a                      a                      a 
 Frequencies --  3074.7426              3079.8890              3089.8286
 Red. masses --     1.8208                 1.8751                 1.9217
 Frc consts  --     0.0000                 0.0000                 0.0000
 IR Inten    --     0.1891                 0.4253                 0.2576
 Raman Activ --     0.0000                 0.0000                 0.0000
 Depolar     --     0.0000                 0.0000                 0.0000
 Atom AN      X      Y      Z        X      Y      Z        X      Y      Z
   1   6    -0.06  -0.11   0.00    -0.05  -0.09   0.00     0.03   0.05  -0.00
   2   6     0.04  -0.07  -0.00     0.08  -0.14  -0.00    -0.07   0.12   0.00
   3   6    -0.17  -0.00   0.00     0.00   0.00  -0.00    -0.20  -0.00   0.00
   4   6     0.04   0.07  -0.00    -0.08  -0.14   0.00    -0.07  -0.12   0.00
   5   6    -0.06   0.11   0.00     0.05  -0.09  -0.00     0.03  -0.05  -0.00
   6   6    -0.01   0.00   0.00     0.00   0.00  -0.00     0.00   0.00  -0.00
   7   1     0.22   0.39  -0.00     0.18   0.31  -0.00    -0.09  -0.16   0.00
   8   1    -0.14   0.24   0.00    -0.29   0.50   0.00     0.22  -0.38  -0.00
   9   1     0.61   0.00  -0.00    -0.00  -0.00   0.00     0.68   0.00  -0.00
  10   1    -0.14  -0.24   0.00     0.29   0.50  -0.00     0.22   0.38  -0.00
  11   1     0.22  -0.39  -0.00    -0.18   0.31   0.00    -0.09   0.16   0.00
  12   6    -0.00  -0.00   0.00    -0.00  -0.01   0.00     0.00   0.00  -0.00
  13   1     0.01  -0.01  -0.01    -0.01   0.02   0.01    -0.00   0.01   0.00
  14   1     0.00  -0.00   0.01    -0.00  -0.00  -0.00    -0.00   0.00  -0.00
  15   1     0.01   0.01  -0.01     0.01   0.02  -0.01    -0.00  -0.01   0.00
