 Entering Gaussian System
 *********************************************
 Gaussian 98:
 frequency output generated by the xtb code
 *********************************************
                         Standard orientation:
 --------------------------------------------------------------------
  Center     Atomic     Atomic              Coordinates (Angstroms)
  Number     Number      Type              X           Y           Z
 --------------------------------------------------------------------
    1          6             0        1.353530   -1.328859    0.039606
    2          6             0        2.884561   -1.332686    0.044846
    3          6             0        2.885817    0.722169    1.122314
    4          6             0        1.355045    0.727429    1.114295
    5          1             0        3.244409   -1.854212    0.945030
    6          1             0        3.275912   -1.825157   -0.846024
    7          1             0        0.993644   -0.885806   -0.901689
    8          1             0        0.961136   -2.341170    0.142584
    9          1             0        3.243270    0.276215    2.063108
   10          1             0        3.280129    1.734037    1.022414
   11          1             0        0.961739    1.222236    2.003023
   12          1             0        0.997631    1.246828    0.211963
   13          8             0        0.853433   -0.592403    1.135705
   14          8             0        3.386156   -0.012812    0.025279
 --------------------------------------------------------------------
     1 basis functions        1 primitive gaussians
     1 alpha electrons        1 beta electrons
 
 Harmonic frequencies (cm**-1), IR intensities (KM/Mole),
 Raman scattering activities (A**4/amu), Raman depolarization ratios,
 reduced masses (AMU), force constants (mDyne/A) and normal coordinates:
                      1                      2                      3
                        a                      a                      a 
 Frequencies --   222.9237               283.7038               397.4346
 Red. masses --     6.3735                10.6024                 7.6721
 Frc consts  --     0.0000                 0.0000                 0.0000
 IR Inten    --     0.1162                 0.7688                 0.0011
 Raman Activ --     0.0000                 0.0000                 0.0000
 Depolar     --     0.0000                 0.0000                 0.0000
 Atom AN      X      Y      Z        X      Y      Z        X      Y      Z
   1   6     0.02   0.20  -0.26     0.12  -0.19   0.09    -0.01  -0.22   0.10
   2   6    -0.02  -0.10   0.31     0.12   0.04   0.21     0.01  -0.04  -0.23
   3   6     0.02   0.19  -0.26     0.12  -0.19   0.09     0.02   0.22  -0.10
   4   6    -0.02  -0.10   0.31     0.12   0.04   0.21    -0.02   0.04   0.24
   5   1    -0.13   0.07   0.20     0.06   0.15   0.13     0.09  -0.16  -0.19
   6   1     0.09  -0.15   0.20     0.07  -0.08   0.13    -0.08   0.12  -0.18
   7   1     0.13   0.21  -0.05     0.06  -0.20  -0.05    -0.09  -0.24  -0.02
   8   1    -0.09   0.08  -0.23     0.07  -0.06   0.14     0.08  -0.08   0.20
   9   1     0.13   0.21  -0.05     0.06  -0.20  -0.05     0.09   0.24   0.02
  10   1    -0.09   0.08  -0.23     0.07  -0.06   0.14    -0.08   0.08  -0.20
  11   1     0.09  -0.15   0.20     0.07  -0.08   0.13     0.08  -0.12   0.18
  12   1    -0.13   0.07   0.20     0.06   0.15   0.13    -0.09   0.16   0.19
  13   8     0.00  -0.13  -0.07    -0.28   0.18  -0.34    -0.26   0.12  -0.24
  14   8    -0.00  -0.13  -0.07    -0.28   0.18  -0.35     0.26  -0.13   0.24
                      4                      5                      6
                        a                      a                      a 
 Frequencies --   445.7622               463.0366               608.7551
 Red. masses --    13.8970                 9.1038                 6.8483
 Frc consts  --     0.0000                 0.0000                 0.0000
 IR Inten    --     0.0002                 0.0011                 0.5859
 Raman Activ --     0.0000                 0.0000                 0.0000
 Depolar     --     0.0000                 0.0000                 0.0000
 Atom AN      X      Y      Z        X      Y      Z        X      Y      Z
   1   6     0.04  -0.19  -0.18    -0.30  -0.22  -0.14    -0.15  -0.11  -0.14
   2   6    -0.04  -0.26  -0.06    -0.30   0.24   0.10    -0.15   0.18   0.01
   3   6    -0.04   0.19   0.18     0.30   0.22   0.14    -0.15  -0.10  -0.14
   4   6     0.04   0.26   0.06     0.30  -0.24  -0.10    -0.15   0.18   0.01
   5   1    -0.01  -0.09  -0.03    -0.19   0.12   0.10    -0.23   0.15   0.14
   6   1     0.07   0.02  -0.03     0.02   0.02   0.11     0.09  -0.10   0.15
   7   1     0.01  -0.08  -0.06    -0.19  -0.15  -0.04    -0.23  -0.20  -0.04
   8   1    -0.07  -0.01   0.04     0.02  -0.10   0.05     0.09  -0.06   0.17
   9   1    -0.01   0.08   0.06     0.19   0.15   0.04    -0.23  -0.20  -0.04
  10   1     0.07   0.01  -0.03    -0.02   0.10  -0.05     0.09  -0.07   0.17
  11   1    -0.07  -0.02   0.03    -0.02  -0.02  -0.11     0.09  -0.10   0.15
  12   1     0.01   0.09   0.03     0.19  -0.12  -0.10    -0.23   0.15   0.14
  13   8     0.54   0.09  -0.16    -0.00  -0.17  -0.09     0.34  -0.01   0.01
  14   8    -0.54  -0.09   0.16     0.00   0.17   0.09     0.34  -0.01   0.01
                      7                      8                      9
                        a                      a                      a 
 Frequencies --   860.8386               879.6109               928.0690
 Red. masses --     5.3035                10.4920                 8.8748
 Frc consts  --     0.0000                 0.0000                 0.0000
 IR Inten    --     0.0021                 0.0023                 0.6137
 Raman Activ --     0.0000                 0.0000                 0.0000
 Depolar     --     0.0000                 0.0000                 0.0000
 Atom AN      X      Y      Z        X      Y      Z        X      Y      Z
   1   6    -0.13  -0.19   0.14    -0.20  -0.28  -0.16     0.29   0.17   0.08
   2   6    -0.13  -0.01   0.24     0.20  -0.30  -0.14    -0.29   0.16   0.09
   3   6     0.13   0.19  -0.14     0.20   0.28   0.17     0.29   0.17   0.08
   4   6     0.13   0.01  -0.24    -0.20   0.30   0.14    -0.29   0.17   0.09
   5   1     0.21  -0.11  -0.11     0.01   0.02   0.04    -0.04  -0.04  -0.04
   6   1    -0.21   0.18  -0.11     0.17  -0.13   0.04    -0.28  -0.01  -0.04
   7   1     0.21   0.15   0.03    -0.01   0.04  -0.00     0.04  -0.05  -0.01
   8   1    -0.21  -0.01  -0.21    -0.17  -0.04  -0.13     0.28  -0.04   0.02
   9   1    -0.21  -0.15  -0.03     0.01  -0.04   0.00     0.04  -0.05  -0.01
  10   1     0.21   0.01   0.21     0.17   0.04   0.14     0.28  -0.04   0.02
  11   1     0.21  -0.18   0.11    -0.17   0.13  -0.04    -0.28  -0.01  -0.04
  12   1    -0.21   0.11   0.11    -0.01  -0.02  -0.04    -0.04  -0.04  -0.04
  13   8     0.00  -0.16  -0.08    -0.22  -0.10   0.19    -0.00  -0.25  -0.13
  14   8     0.00   0.16   0.08     0.23   0.10  -0.19     0.00  -0.25  -0.13
                     10                     11                     12
                        a                      a                      a 
 Frequencies --   929.9811              1026.4522              1044.7391
 Red. masses --     9.7614                 7.8667                 8.1066
 Frc consts  --     0.0000                 0.0000                 0.0000
 IR Inten    --     1.1088                 0.2556                 0.0006
 Raman Activ --     0.0000                 0.0000                 0.0000
 Depolar     --     0.0000                 0.0000                 0.0000
 Atom AN      X      Y      Z        X      Y      Z        X      Y      Z
   1   6    -0.13   0.09   0.23     0.09   0.35   0.11     0.35  -0.16  -0.05
   2   6    -0.13  -0.24   0.05     0.09  -0.29  -0.23    -0.35  -0.13  -0.11
   3   6    -0.13   0.09   0.23     0.09   0.35   0.11    -0.34   0.16   0.05
   4   6    -0.13  -0.24   0.05     0.09  -0.29  -0.23     0.35   0.13   0.10
   5   1     0.07  -0.01  -0.01    -0.18  -0.01   0.06    -0.13   0.01   0.01
   6   1    -0.22  -0.16  -0.01     0.16  -0.18   0.06    -0.19  -0.20   0.02
   7   1     0.07   0.02   0.00    -0.18  -0.04   0.05     0.13   0.02   0.00
   8   1    -0.23   0.10   0.13     0.16   0.05   0.18     0.19  -0.10  -0.17
   9   1     0.07   0.02   0.00    -0.18  -0.04   0.05    -0.13  -0.02  -0.00
  10   1    -0.23   0.10   0.13     0.16   0.05   0.18    -0.19   0.10   0.17
  11   1    -0.23  -0.16  -0.01     0.16  -0.18   0.06     0.19   0.19  -0.02
  12   1     0.07  -0.01  -0.01    -0.18  -0.01   0.06     0.13  -0.01  -0.01
  13   8     0.30   0.14  -0.27    -0.15  -0.01   0.01    -0.11  -0.04   0.08
  14   8     0.30   0.14  -0.27    -0.15  -0.01   0.01     0.11   0.04  -0.08
                     13                     14                     15
                        a                      a                      a 
 Frequencies --  1069.7982              1096.1310              1111.6793
 Red. masses --     6.3658                12.8062                 7.1994
 Frc consts  --     0.0000                 0.0000                 0.0000
 IR Inten    --     0.0865                 0.0019                 0.0662
 Raman Activ --     0.0000                 0.0000                 0.0000
 Depolar     --     0.0000                 0.0000                 0.0000
 Atom AN      X      Y      Z        X      Y      Z        X      Y      Z
   1   6    -0.16   0.20  -0.23     0.06  -0.24  -0.21    -0.10   0.14  -0.28
   2   6     0.16  -0.08   0.30     0.07   0.31   0.08     0.10  -0.15   0.27
   3   6    -0.16   0.20  -0.23    -0.07   0.23   0.21     0.07  -0.13   0.30
   4   6     0.16  -0.08   0.30    -0.06  -0.30  -0.07    -0.07   0.17  -0.28
   5   1     0.11  -0.24  -0.08     0.03  -0.04  -0.04     0.14  -0.17  -0.07
   6   1    -0.04   0.21  -0.09     0.03   0.14  -0.02    -0.25  -0.01  -0.07
   7   1    -0.11  -0.20  -0.15     0.03   0.05   0.01    -0.14  -0.15  -0.10
   8   1     0.04   0.04   0.22     0.03  -0.06  -0.13     0.24  -0.06   0.03
   9   1    -0.11  -0.20  -0.15    -0.03  -0.05  -0.01     0.13   0.16   0.11
  10   1     0.04   0.04   0.22    -0.03   0.06   0.13    -0.24   0.06  -0.04
  11   1    -0.04   0.21  -0.09    -0.03  -0.14   0.02     0.24   0.01   0.07
  12   1     0.11  -0.24  -0.08    -0.03   0.04   0.04    -0.13   0.18   0.07
  13   8    -0.00  -0.06  -0.03     0.00   0.44   0.23    -0.01  -0.12   0.18
  14   8    -0.00  -0.06  -0.03     0.00  -0.44  -0.23     0.01   0.08  -0.20
                     16                     17                     18
                        a                      a                      a 
 Frequencies --  1113.8344              1175.4792              1198.5566
 Red. masses --    11.8673                 2.0757                 3.8675
 Frc consts  --     0.0000                 0.0000                 0.0000
 IR Inten    --     1.3378                 0.0020                 0.5496
 Raman Activ --     0.0000                 0.0000                 0.0000
 Depolar     --     0.0000                 0.0000                 0.0000
 Atom AN      X      Y      Z        X      Y      Z        X      Y      Z
   1   6    -0.28   0.11   0.24    -0.01   0.01   0.15    -0.12  -0.02  -0.12
   2   6     0.28   0.26  -0.04    -0.01  -0.13   0.08     0.12  -0.12   0.05
   3   6    -0.29   0.12   0.21     0.01  -0.01  -0.15    -0.12  -0.02  -0.12
   4   6     0.29   0.24  -0.02     0.01   0.13  -0.08     0.12  -0.12   0.05
   5   1     0.11   0.12   0.02    -0.23  -0.25  -0.01     0.16   0.06   0.00
   6   1     0.01  -0.06   0.03     0.24   0.23  -0.02    -0.31  -0.26  -0.01
   7   1    -0.11   0.09   0.09    -0.23   0.15   0.20    -0.16   0.03   0.05
   8   1    -0.01  -0.01  -0.07     0.24  -0.12  -0.20     0.31  -0.16  -0.21
   9   1    -0.12   0.07   0.08     0.23  -0.15  -0.20    -0.16   0.03   0.04
  10   1     0.01  -0.02  -0.06    -0.24   0.12   0.20     0.31  -0.16  -0.21
  11   1    -0.01  -0.06   0.02    -0.24  -0.23   0.02    -0.31  -0.26  -0.01
  12   1     0.12   0.10   0.01     0.23   0.25   0.01     0.16   0.06   0.00
  13   8     0.00  -0.34  -0.19    -0.00  -0.03  -0.01     0.00   0.20   0.11
  14   8    -0.00  -0.35  -0.17    -0.00   0.03   0.01     0.00   0.20   0.11
                     19                     20                     21
                        a                      a                      a 
 Frequencies --  1267.6110              1270.5034              1300.0304
 Red. masses --     4.6406                 4.8889                 3.1756
 Frc consts  --     0.0000                 0.0000                 0.0000
 IR Inten    --     0.6784                 0.0025                 0.0048
 Raman Activ --     0.0000                 0.0000                 0.0000
 Depolar     --     0.0000                 0.0000                 0.0000
 Atom AN      X      Y      Z        X      Y      Z        X      Y      Z
   1   6    -0.02  -0.08   0.14    -0.17  -0.04   0.09    -0.17   0.11   0.06
   2   6    -0.02  -0.07   0.15     0.17   0.05  -0.09    -0.17  -0.11  -0.06
   3   6    -0.02  -0.08   0.14     0.17   0.04  -0.09     0.17  -0.11  -0.06
   4   6    -0.02  -0.07   0.15    -0.17  -0.05   0.09     0.17   0.11   0.06
   5   1    -0.22  -0.26  -0.02     0.16   0.16   0.03     0.25   0.20   0.00
   6   1     0.14   0.22  -0.03    -0.21  -0.27   0.02     0.27   0.15   0.02
   7   1    -0.22   0.17   0.20    -0.17   0.12   0.12     0.25  -0.12  -0.17
   8   1     0.14  -0.10  -0.19     0.21  -0.14  -0.24     0.27  -0.10  -0.11
   9   1    -0.22   0.17   0.20     0.16  -0.12  -0.12    -0.26   0.12   0.17
  10   1     0.14  -0.10  -0.19    -0.21   0.14   0.24    -0.27   0.11   0.11
  11   1     0.14   0.22  -0.03     0.21   0.27  -0.02    -0.27  -0.15  -0.02
  12   1    -0.22  -0.26  -0.02    -0.17  -0.17  -0.03    -0.26  -0.21  -0.00
  13   8     0.08   0.13  -0.24     0.12   0.11  -0.21    -0.00   0.07   0.04
  14   8     0.08   0.13  -0.24    -0.12  -0.11   0.21    -0.00  -0.07  -0.04
                     22                     23                     24
                        a                      a                      a 
 Frequencies --  1311.9587              1327.0174              1350.3342
 Red. masses --     4.0475                 2.9949                 3.7613
 Frc consts  --     0.0000                 0.0000                 0.0000
 IR Inten    --     0.5411                 0.2494                 0.0006
 Raman Activ --     0.0000                 0.0000                 0.0000
 Depolar     --     0.0000                 0.0000                 0.0000
 Atom AN      X      Y      Z        X      Y      Z        X      Y      Z
   1   6     0.20  -0.12  -0.11    -0.17   0.00   0.11    -0.20   0.01   0.13
   2   6     0.20   0.16   0.03     0.17   0.09  -0.06     0.20   0.11  -0.07
   3   6     0.20  -0.11  -0.11    -0.18   0.00   0.11     0.20  -0.01  -0.13
   4   6     0.20   0.15   0.03     0.18   0.09  -0.06    -0.20  -0.11   0.07
   5   1    -0.23  -0.16   0.00    -0.36  -0.24  -0.00    -0.35  -0.22   0.00
   6   1    -0.28  -0.16  -0.02    -0.09  -0.11  -0.00    -0.10  -0.10  -0.01
   7   1    -0.23   0.09   0.14     0.35  -0.14  -0.20     0.35  -0.12  -0.18
   8   1    -0.28   0.11   0.12     0.09  -0.06  -0.09     0.10  -0.06  -0.08
   9   1    -0.23   0.09   0.13     0.36  -0.14  -0.20    -0.35   0.12   0.18
  10   1    -0.28   0.11   0.12     0.09  -0.06  -0.09    -0.10   0.06   0.08
  11   1    -0.28  -0.16  -0.02    -0.09  -0.11  -0.00     0.10   0.10   0.01
  12   1    -0.22  -0.16   0.00    -0.36  -0.24  -0.00     0.35   0.22  -0.00
  13   8    -0.09  -0.01   0.01    -0.00   0.06   0.03     0.08  -0.01   0.03
  14   8    -0.09  -0.00   0.01     0.00   0.06   0.03    -0.08   0.02  -0.03
                     25                     26                     27
                        a                      a                      a 
 Frequencies --  1445.1018              1449.6137              1451.2657
 Red. masses --     1.8215                 1.9381                 1.8667
 Frc consts  --     0.0000                 0.0000                 0.0000
 IR Inten    --     0.0007                 0.0850                 0.0742
 Raman Activ --     0.0000                 0.0000                 0.0000
 Depolar     --     0.0000                 0.0000                 0.0000
 Atom AN      X      Y      Z        X      Y      Z        X      Y      Z
   1   6    -0.09  -0.05  -0.07     0.08   0.07   0.09     0.09   0.07   0.08
   2   6    -0.09   0.09   0.00     0.08  -0.12  -0.01    -0.09   0.10   0.01
   3   6     0.09   0.06   0.08     0.08   0.07   0.09     0.09   0.07   0.08
   4   6     0.09  -0.10  -0.00     0.08  -0.12  -0.01    -0.09   0.10   0.01
   5   1     0.14  -0.24  -0.20    -0.14   0.24   0.21     0.16  -0.22  -0.19
   6   1     0.15  -0.22   0.20    -0.15   0.23  -0.20     0.15  -0.21   0.20
   7   1     0.14   0.30   0.08    -0.14  -0.30  -0.08    -0.16  -0.30  -0.08
   8   1     0.15  -0.04   0.30    -0.15   0.03  -0.29    -0.16   0.04  -0.29
   9   1    -0.14  -0.30  -0.09    -0.14  -0.30  -0.08    -0.17  -0.30  -0.08
  10   1    -0.15   0.04  -0.30    -0.14   0.04  -0.29    -0.16   0.05  -0.30
  11   1    -0.15   0.23  -0.20    -0.15   0.23  -0.20     0.16  -0.21   0.20
  12   1    -0.14   0.25   0.20    -0.14   0.24   0.21     0.16  -0.23  -0.20
  13   8    -0.00  -0.05  -0.02     0.01  -0.01   0.02     0.00   0.03   0.01
  14   8    -0.00   0.04   0.02     0.01  -0.01   0.01     0.00   0.03   0.01
                     28                     29                     30
                        a                      a                      a 
 Frequencies --  1455.1322              2863.3357              2863.9844
 Red. masses --     1.9712                 1.6544                 1.6773
 Frc consts  --     0.0000                 0.0000                 0.0000
 IR Inten    --     0.0011                 0.0733                 0.1289
 Raman Activ --     0.0000                 0.0000                 0.0000
 Depolar     --     0.0000                 0.0000                 0.0000
 Atom AN      X      Y      Z        X      Y      Z        X      Y      Z
   1   6    -0.08  -0.08  -0.10    -0.05   0.08  -0.13    -0.01   0.03  -0.04
   2   6     0.08  -0.12  -0.01     0.05  -0.06   0.14     0.01  -0.02   0.04
   3   6     0.08   0.08   0.09     0.02  -0.02   0.04    -0.05   0.08  -0.13
   4   6    -0.08   0.12   0.01    -0.02   0.02  -0.04     0.05  -0.06   0.14
   5   1    -0.15   0.24   0.20    -0.21   0.31  -0.54    -0.06   0.08  -0.15
   6   1    -0.16   0.21  -0.20     0.02  -0.02   0.00     0.01  -0.01  -0.01
   7   1     0.15   0.30   0.08     0.22  -0.27   0.57     0.06  -0.08   0.16
   8   1     0.16  -0.05   0.29    -0.02  -0.01  -0.02    -0.01  -0.01  -0.00
   9   1    -0.15  -0.29  -0.08    -0.06   0.07  -0.16     0.22  -0.27   0.56
  10   1    -0.16   0.04  -0.29     0.00  -0.01   0.01    -0.02  -0.01  -0.02
  11   1     0.16  -0.21   0.20    -0.00   0.00  -0.01     0.02  -0.02   0.00
  12   1     0.15  -0.23  -0.20     0.06  -0.09   0.15    -0.21   0.31  -0.54
  13   8    -0.01   0.01  -0.01     0.00   0.00  -0.01    -0.00  -0.01   0.00
  14   8     0.01  -0.01   0.01    -0.00  -0.01   0.01     0.00  -0.01  -0.01
                     31                     32                     33
                        a                      a                      a 
 Frequencies --  2876.1641              2879.9843              2996.3366
 Red. masses --     1.7672                 1.7326                 1.7366
 Frc consts  --     0.0000                 0.0000                 0.0000
 IR Inten    --     0.0449                 0.6202                 0.2280
 Raman Activ --     0.0000                 0.0000                 0.0000
 Depolar     --     0.0000                 0.0000                 0.0000
 Atom AN      X      Y      Z        X      Y      Z        X      Y      Z
   1   6     0.05  -0.06   0.11    -0.04   0.05  -0.10     0.04   0.11  -0.02
   2   6     0.05  -0.06   0.12    -0.04   0.05  -0.10     0.04  -0.05  -0.10
   3   6    -0.04   0.06  -0.10    -0.05   0.06  -0.11     0.05   0.12  -0.02
   4   6    -0.04   0.05  -0.10    -0.05   0.06  -0.11     0.05  -0.06  -0.12
   5   1    -0.17   0.24  -0.43     0.14  -0.21   0.37     0.01  -0.01  -0.01
   6   1     0.01  -0.01   0.01    -0.00   0.00  -0.02    -0.15   0.19   0.36
   7   1    -0.17   0.21  -0.44     0.14  -0.18   0.38     0.01   0.01   0.00
   8   1     0.01  -0.00   0.01    -0.00   0.01  -0.01    -0.16  -0.43   0.05
   9   1     0.14  -0.19   0.38     0.16  -0.21   0.44     0.01   0.01   0.00
  10   1    -0.01  -0.00  -0.01    -0.00   0.01  -0.02    -0.18  -0.46   0.05
  11   1    -0.01   0.01  -0.01    -0.01   0.00  -0.02    -0.19   0.24   0.44
  12   1     0.14  -0.21   0.37     0.16  -0.24   0.42     0.01  -0.01  -0.01
  13   8    -0.00   0.01   0.01     0.00   0.01  -0.01    -0.00  -0.00  -0.00
  14   8    -0.00  -0.01  -0.00     0.00   0.01  -0.01     0.00   0.00   0.00
                     34                     35                     36
                        a                      a                      a 
 Frequencies --  2996.9733              2997.4005              3001.5399
 Red. masses --     1.7276                 1.7342                 1.7172
 Frc consts  --     0.0000                 0.0000                 0.0000
 IR Inten    --     0.0180                 0.0081                 0.3787
 Raman Activ --     0.0000                 0.0000                 0.0000
 Depolar     --     0.0000                 0.0000                 0.0000
 Atom AN      X      Y      Z        X      Y      Z        X      Y      Z
   1   6    -0.05  -0.12   0.02    -0.05  -0.12   0.01     0.05   0.12  -0.01
   2   6    -0.05   0.06   0.12     0.04  -0.06  -0.10    -0.05   0.06   0.10
   3   6     0.04   0.10  -0.01     0.05   0.13  -0.01     0.05   0.12  -0.01
   4   6     0.05  -0.05  -0.10    -0.04   0.06   0.09    -0.05   0.06   0.10
   5   1    -0.00   0.00   0.02     0.00  -0.00  -0.02     0.00  -0.01   0.03
   6   1     0.19  -0.24  -0.44    -0.16   0.21   0.38     0.17  -0.22  -0.40
   7   1    -0.00  -0.02   0.01    -0.00  -0.02   0.01    -0.00   0.02  -0.02
   8   1     0.18   0.46  -0.05     0.17   0.46  -0.05    -0.17  -0.45   0.05
   9   1     0.00   0.02  -0.01     0.00   0.02  -0.01    -0.00   0.02  -0.02
  10   1    -0.15  -0.39   0.04    -0.19  -0.49   0.05    -0.17  -0.45   0.05
  11   1    -0.17   0.21   0.39     0.16  -0.20  -0.36     0.17  -0.21  -0.39
  12   1     0.00  -0.00  -0.02    -0.00   0.00   0.02     0.00  -0.01   0.03
  13   8    -0.00  -0.01  -0.01     0.00  -0.00   0.00     0.00   0.01   0.00
  14   8     0.00   0.01   0.01    -0.00   0.00  -0.00     0.00   0.01   0.00
