 
        ______________________________________
       |                                      |
       |           ==================         |
       |                 x T B                |
       |           ==================         |
       |               S. Grimme              |
       |        Universitaet Bonn, MCTC       |
       |         2015-18, Version 5.8.1       |
       |      Sun May  6 11:39:08 CEST 2018   |
       |______________________________________|
 
        This code comes without any warranty
        for non-commercial, academia use only.
        Preliminary GFN2 test version.
        Test license to: Dow Chemical Company
        Cite GFN-xTB work as:
        S. Grimme, C. Bannwarth, P. Shushkov
        JCTC, 13 (2017) 1989-2009
        for GFN2:
        C. Bannwarth, S. Ehlert, S. Grimme
        to be published.
        sTDA-xTB:
        S. Grimme  &  C. Bannwarth, JCP 145 (2016) 054103
        in the mass-spec context additionally:
        V. Asgeirsson, C.Bauer, S. Grimme, Chem. Sci. 8 (2017) 4879
 
        with help from
        P. Shushkov, G. Brandenburg, S. Dohm, J. Pisarek,
        F. März, M. Checinski, S. Ehrlich, S. Spicher, 
        P. Pracht, E. Caldeweyher, S. Ehlert, and C. Bannwarth.
 
        usage        :
        xtb <coord_file> [options]
        where <coord_file> is a valid file of TM)
        (*coord, Bohr) or xmol (*xyz, Angstroem)
        format.

        options:
        -chrg <int>   : molecular charge
        -uhf  <int>   : # of unpaired electrons(=2*S)
        -nox          : skip second, extended part in sTDA-xTB
        -pop          : do population analysis
                      : (default for -nox)
        -mowr <real>  : cut MO write above (def.3 Eh)
        -molden       : write formatted molden file
        -parx <file>  : read parameters for sTDA-xTB
                        calc (def:~/.param_stda2.xtb)
        -parv <file>  : read parameters for vTB part in
                        sTDA-xTB (def: ~/.param_stda1.xtb)
        -xtemp <real> : el. temp for xTB (def. 0 K)
        -etemp <real> : el. temp for GFN (def. 300 K)
        -fod          : calculate the FOD and write
                        molden.input file with
                        appropriate occupations
                        for plotting. Def. T=12500 K
 
        -gfn1         : use GFN-xTB
        -gfn2         : use GFN2-xTB
        -gfn2d3       : GFN2-xTB with D3 instead of D4
        -grad         : GFNn-xTB gradient
        -acc <real>   : GFNn-xTB accuracy (def. 1.0)
        -opt [level]  : optimize at GFNn-xTB
                      : level=crude,vloose,loose,
                      :       tight,vtight
        -hess         : compute Hessian at GFNn-xTB
        -ohess        : optimize and compute Hessian
        -omd          : optimize and do MD
        -siman        : conformational search
        -screen       : opt. loop over ensemble
        -gmd          : annealed MD for GMD procedure
        -modef        : vib mode following
        -gbsa [string1] [string2]
                        use GBSA implicit solvent
                        for solvent [string1] and
                        solvation state [string2]=
                        reference, bar1M (default=1M)
        additional GFN/opt/MD/siman options read from
        $XTBHOME/.xtbrc or $set in coordinate file
 
       spin and charge state information can be on:
       <.CHRG> (charge) and <.UHF> (=nalpha-nbeta)
       -uhf and -chrg override the file info.
       useful machine settings:
       setenv MKL_NUM_THREADS <NCORE_ON_YOUR_MACHINE>
       setenv OMP_STACKSIZE 500m
       limit stacksize unlimited
 
       total energies in Eh, gaps/HL energies in eV
       please read REVISION and HOWTO files carefully
          72  days left until this code expires
 =============================
  # OMP threads =           2
 =============================
 
 xtbhome directory:/home/ua25450/dftb/
 
 argument            1 :-ohess
 
 name of molecule           :
 comment line               :
 number of atoms            :     9
 number of electrons        :    20
 charge                     :  0
 spin                       : 0.0
 first test random number   :  0.1905
 
 
 -----------------------------------------
  G F N (Geometry, Frequency, Non-covalent)
        parametrization, gfnver=           3
     D4 dispersion model
 /home/ua25450/dftb/.param_gfn2.xtb
 -----------------------------------------
      method parameters     
 k(s)        :  1.8500
 k(p)        :  2.2300
 k(d)        :  2.2300
 k(f)        :  2.0000
 kEN (H0ij)  : -2.0000
 D3 a1       :  0.5200
 D3 a2       :  5.0000
 D3 s8       :  2.7000
 D3atm       :  5.0000
 alphaj      :  2.0000
 
     -------------------------
     ! NO SOLVENT MODEL USED !
     -------------------------
 
 doing EN charges ...
 sum q :  0.4440892D-15
 point charge moment (au)
     X       Y       Z   
  -0.1597   0.1139  -0.1971  total (Debye):    0.707
 
            Z     q(EN)     CN     RAES       Cart. coordinates
     1  C   4.0   -0.07    4.05    3.71    -0.34580    -2.25220     1.83212
     2  H   1.0    0.05    0.99    1.43     0.41200    -4.15834     1.97027
     3  H   1.0    0.04    0.99    1.43     0.33567    -1.36307     0.08647
     4  H   1.0    0.04    0.99    1.43    -2.41715    -2.33618     1.76618
     5  O   6.0   -0.13    2.01    1.83     0.49816    -0.93812     3.97559
     6  C   4.0   -0.07    4.05    3.71    -0.34214     1.57632     4.04129
     7  H   1.0    0.04    0.99    1.43    -2.41327     1.67858     4.08406
     8  H   1.0    0.05    0.99    1.43     0.41959     2.41029     5.75919
     9  H   1.0    0.04    0.99    1.43     0.33833     2.64146     2.39651
 
  Z AO/shell   Hii/eV     exponent
  1     Wed Apr 25 08:07:45 CEST 2018   EN: 2.200 GM2: 0.406  GM3: 0.0800  RAES: 1.40
     1s    -10.707211    1.230000
  6     Wed Apr 25 08:07:45 CEST 2018   EN: 2.550 GM2: 0.538  GM3: 0.1500  RAES: 3.00
     2s    -13.970922    2.096432
     2p    -10.063292    1.800000
  8     Wed Apr 25 08:07:45 CEST 2018   EN: 3.440 GM2: 0.452  GM3:-0.0517  RAES: 1.80
     2s    -20.229985    2.439742
     2p    -15.503117    2.137023
 
Refinement of some symmetry elements was terminated before convergence was reached.
Some symmetry elements may remain unidentified.
Molecule has the following symmetry elements: (C2) 2*(sigma) 
It seems to be the C2v point group
c2v symmetry found (for desy threshold:  0.10E+00) used in thermo
 no old-style atom pair restraing (fixing) potential
 
             =======================================
             |                                     |
             |        S C C  calculation           |
             |                                     |
             =======================================
 #proc     :            2
 Ncao      :           18
 Nao       :           18
 Nel       :           20
 T(el)     :   300.0
 intcut    :    25.0
 scfconv   :  0.100E-05
   qconv   :  0.100E-03
 intneglect:  0.100E-07
 broydamp  :      0.400
 Nshell    :           12
  q data taken from xtbrestart
  CAMM data taken from xtbrestart
 iter      E             dE          RMSdq      gap      omega  full diag
   1    -11.5019621 -0.115020E+02  0.173E-06   12.32       0.0  T
   2    -11.5019621  0.142109E-13  0.108E-06   12.32   30733.4  T
   3    -11.5019621 -0.710543E-14  0.292E-07   12.32  100000.0  T
speedup  1.00
cpu  time for SCC    0.00 s
wall time for SCC    0.00 s

          eigenvalues
 #    :           1          2          3          4          5          6          7          8
 occ. :        2.000      2.000      2.000      2.000      2.000      2.000      2.000      2.000
 eps  :       -18.976    -17.351    -16.394    -14.903    -14.780    -14.761    -13.176    -12.754
 #    :           9         10         11         12         13         14         15         16
 occ. :        2.000      2.000      0.000      0.000      0.000      0.000      0.000      0.000
 eps  :       -12.370    -10.912      1.411      3.307      3.347      4.505      5.203      5.302
 #    :          17         18
 occ. :        0.000      0.000
 eps  :         5.309      7.194
 

   #   Z            q   n(s)   n(p)   n(d)      C6AA      α(0)    relVol
   1   6 C      0.042  1.024  2.934  0.000    20.293     6.491     0.525
   2   1 H      0.057  0.943  0.000  0.000     2.227     2.334     0.462
   3   1 H      0.028  0.972  0.000  0.000     2.619     2.531     0.501
   4   1 H      0.028  0.972  0.000  0.000     2.619     2.531     0.501
   5   8 O     -0.308  1.671  4.637  0.000    19.565     5.985     1.152
   6   6 C      0.042  1.024  2.934  0.000    20.293     6.491     0.525
   7   1 H      0.028  0.972  0.000  0.000     2.619     2.531     0.501
   8   1 H      0.057  0.943  0.000  0.000     2.227     2.334     0.462
   9   1 H      0.028  0.972  0.000  0.000     2.619     2.531     0.501

 Mol. C6AA /au*bohr^6 :        521.302417
 Mol. C8AA /au*bohr^6 :      10195.568925
 Mol. a(0) /au        :         33.756773

 
 Wiberg/Mayer (AO) data. WBOs > 0.1 written file <wbo>
 largest (>0.05) Wiberg bond orders for each atom
           total WBO             WBO to atom ...
     1  C   3.955    O    5 1.000    H    2 0.981    H    4 0.977    H    3 0.977
     2  H   0.997    C    1 0.981
     3  H   0.999    C    1 0.977
     4  H   0.999    C    1 0.977
     5  O   2.075    C    6 1.000    C    1 1.000
     6  C   3.955    O    5 1.000    H    8 0.981    H    7 0.977    H    9 0.977
     7  H   0.999    C    6 0.977
     8  H   0.997    C    6 0.981
     9  H   0.999    C    6 0.977
 
molecular dipole:
                 x           y           z       tot (Debye)
 q only:       -0.250       0.178      -0.308
   full:        0.621       0.254      -0.440       1.579
molecular quadrupole (traceless):
                xx          xy          yy          xz          yz          zz
 q only:       -0.020       0.255       2.305      -1.315       2.717      -2.285
  q+dip:        1.267       0.636       1.870      -2.357       2.543      -3.137
   full:        0.798       0.507       2.362      -2.132       2.989      -3.160
 SCC converged in            3  cycles
 
SCC energy    :     -11.5019621
rep           :       0.1134262
ES            :       0.0174570
AES           :       0.0025046
AXC           :       0.0017815
disp          :      -0.0028359
XB            :       0.0000000
fix           :       0.0000000
total E       :     -11.3885355
atomizationE  :       2.0160908     1265.12
(atE without considerung molecular charge,
 total energy contains solvation terms)
H-L gap (eV)  :         12.3232
 
             =======================================
             |                                     |
             |    Approximate Normal Coordinate    |
             |   Rational Function Optimization    |
             |                                     |
             =======================================
Ref. for RF algo: F.Eckert, P.Pulay, H.-J.Werner
                  J.Comput.Chem. 18 (1997) 1473.
ANC idea implemented by S. Grimme in the 2000ers (unpublished)
restraining potential by S. Ehrlich.
dumping coords to <xtbopt.coord> and <xtbopt.log
 optlevel               1
 Maxcycle             200
 Maxmicro              20
 Econv         1.000000000000000E-006
 Gconv         8.000000000000000E-004
 Maxdispl       1.00000000000000     
 Hlow          1.000000000000000E-002
 S6             20.0000000000000     
 Nvar               21

generating ANC from read Hessian ...
 Shifting diagonal of input Hessian by   8.244407722271882E-003
 Lowest  eigenvalues of input Hessian
   -0.000000   -0.000000   -0.000000    0.000000    0.000000    0.000000
    0.010000    0.013133    0.023051    0.072762    0.072911    0.075990
    0.108881    0.124074    0.127986    0.129300    0.162866    0.178801
 Highest eigenvalues
    0.628281    0.699570    0.703520    0.707594    0.756401    0.807935
 
cpu  time for ANC gen    0.01 s
wall time for ANC gen    0.01 s
................................................................................
.............................. CYCLE    1 ......................................
................................................................................
  q data taken from xtbrestart
  CAMM data taken from xtbrestart
   1    -11.5019621 -0.115020E+02  0.113E-07   12.32       0.0  T
   2    -11.5019621  0.177636E-14  0.707E-08   12.32  100000.0  T
   3    -11.5019621 -0.106581E-13  0.189E-08   12.32  100000.0  T
speedup  1.00
cpu  time for SCC    0.00 s
wall time for SCC    0.00 s
speedup  1.00
cpu  time for grad    0.00 s
wall time for grad    0.00 s
 E :    -11.38853549  G :  0.000208    pred/act E change:  0.000D+00 -0.339D-10
Maxdispl :   0.0031   ||displ|| :   0.0035   Lambda : -0.276D-06
Largest |displ|/coords:  0.0031 (   2)  0.0013 (   3)  0.0003 (  13)
ancopt converged in          1 cycles
total energy gain (kcal):      0.0000
================
 final structure:
================
     9
        -11.38853549
C          -0.18298854377494   -1.19181168352494    0.96951518958428
H           0.21802269780409   -2.20050157810263    1.04262429384498
H           0.17762761154099   -0.72130558990347    0.04575567408386
H          -1.27910185996032   -1.23625070731137    0.93462153430881
O           0.26361373920691   -0.49643299498072    2.10379321851938
C          -0.18105125467342    0.83415077973083    2.13856103681695
H          -1.27704693905502    0.88826426724991    2.16118941140779
H           0.22203848997404    1.27546823476014    3.04763141596262
H           0.17903485893765    1.39779840208225    1.26817917547134
 
 Bond Distances (Angstroems)
 ---------------------------
C1-H2=1.0879         C1-H3=1.0976         C1-H4=1.0976         C1-O5=1.4034         H2-C1=1.0879         H3-C1=1.0976         
H4-C1=1.0976         O5-C1=1.4034         O5-C6=1.4033         C6-O5=1.4033         C6-H7=1.0976         C6-H8=1.0880         
C6-H9=1.0977         H7-C6=1.0976         H8-C6=1.0880         H9-C6=1.0977         
 C  H  Rav=1.0944 sigma=0.0046  Rmin=1.0879  Rmax=1.0977     6
 O  C  Rav=1.4034 sigma=0.0000  Rmin=1.4033  Rmax=1.4034     2
 
 selected bond angles (degree)
 --------------------
H3-C1-H2=109.44                H4-C1-H2=109.43                H4-C1-H3=108.58                O5-C1-H2=106.73                
O5-C1-H3=111.30                O5-C1-H4=111.32                C6-O5-C1=112.89                H7-C6-O5=111.33                
H8-C6-O5=106.73                H8-C6-H7=109.44                H9-C6-O5=111.30                H9-C6-H7=108.58                
H9-C6-H8=109.43                
 
 selected dihedral angles (degree)
 ---------------------------------
C6-O5-C1-H2=179.85            C6-O5-C1-H3= 60.49            C6-O5-C1-H4=299.20            H7-C6-O5-C1= 60.84            
H8-C6-O5-C1=180.20            H9-C6-O5-C1=299.55            
 
             =======================================
             |                                     |
             |        S C C  calculation           |
             |                                     |
             =======================================
 #proc     :            2
 Ncao      :           18
 Nao       :           18
 Nel       :           20
 T(el)     :   300.0
 intcut    :    25.0
 scfconv   :  0.100E-05
   qconv   :  0.100E-03
 intneglect:  0.100E-07
 broydamp  :      0.400
 Nshell    :           12
 iter      E             dE          RMSdq      gap      omega  full diag
   1    -11.5019621 -0.115020E+02  0.463E-09   12.32       0.0  T
   2    -11.5019621  0.106581E-13  0.302E-09   12.32  100000.0  T
   3    -11.5019621 -0.177636E-14  0.102E-09   12.32  100000.0  T
speedup  1.00
cpu  time for SCC    0.00 s
wall time for SCC    0.00 s

          eigenvalues
 #    :           1          2          3          4          5          6          7          8
 occ. :        2.000      2.000      2.000      2.000      2.000      2.000      2.000      2.000
 eps  :       -18.976    -17.351    -16.394    -14.903    -14.780    -14.761    -13.176    -12.754
 #    :           9         10         11         12         13         14         15         16
 occ. :        2.000      2.000      0.000      0.000      0.000      0.000      0.000      0.000
 eps  :       -12.370    -10.912      1.411      3.307      3.347      4.505      5.203      5.302
 #    :          17         18
 occ. :        0.000      0.000
 eps  :         5.309      7.194
 

   #   Z            q   n(s)   n(p)   n(d)      C6AA      α(0)    relVol
   1   6 C      0.042  1.024  2.934  0.000    20.293     6.491     0.525
   2   1 H      0.057  0.943  0.000  0.000     2.227     2.334     0.462
   3   1 H      0.028  0.972  0.000  0.000     2.619     2.531     0.501
   4   1 H      0.028  0.972  0.000  0.000     2.619     2.531     0.501
   5   8 O     -0.308  1.671  4.637  0.000    19.565     5.985     1.152
   6   6 C      0.042  1.024  2.934  0.000    20.293     6.491     0.525
   7   1 H      0.028  0.972  0.000  0.000     2.619     2.531     0.501
   8   1 H      0.057  0.943  0.000  0.000     2.227     2.334     0.462
   9   1 H      0.028  0.972  0.000  0.000     2.619     2.531     0.501

 Mol. C6AA /au*bohr^6 :        521.302418
 Mol. C8AA /au*bohr^6 :      10195.568935
 Mol. a(0) /au        :         33.756773

 
 Wiberg/Mayer (AO) data. WBOs > 0.1 written file <wbo>
 largest (>0.05) Wiberg bond orders for each atom
           total WBO             WBO to atom ...
     1  C   3.955    O    5 1.000    H    2 0.981    H    4 0.977    H    3 0.977
     2  H   0.997    C    1 0.981
     3  H   0.999    C    1 0.977
     4  H   0.999    C    1 0.977
     5  O   2.075    C    6 1.000    C    1 1.000
     6  C   3.955    O    5 1.000    H    8 0.981    H    7 0.977    H    9 0.977
     7  H   0.999    C    6 0.977
     8  H   0.997    C    6 0.981
     9  H   0.999    C    6 0.977
 
molecular dipole:
                 x           y           z       tot (Debye)
 q only:       -0.250       0.178      -0.308
   full:       -0.357       0.254      -0.440       1.579
molecular quadrupole (traceless):
                xx          xy          yy          xz          yz          zz
 q only:       -0.020       0.255       2.305      -1.315       2.717      -2.285
  q+dip:        1.267       0.636       1.870      -2.357       2.543      -3.137
   full:        0.798       0.507       2.362      -2.132       2.989      -3.160
 SCC converged in            3  cycles
 
SCC energy    :     -11.5019621
rep           :       0.1134262
ES            :       0.0174570
AES           :       0.0025046
AXC           :       0.0017815
disp          :      -0.0028359
XB            :       0.0000000
fix           :       0.0000000
total E       :     -11.3885355
atomizationE  :       2.0160908     1265.12
(atE without considerung molecular charge,
 total energy contains solvation terms)
H-L gap (eV)  :         12.3232
 !!!!!!!!!!!!!!!!!!!!!!!!!!!!!!!!!!!
 ! Note: the input coordinates are !
 ! NOT overwritten. The optimized  !
 ! ones are on file <xtbopt.coord> !
 ! (or on <xtbopt.xyz> if it was a !
 ! xyz file)                       !
 !!!!!!!!!!!!!!!!!!!!!!!!!!!!!!!!!!!
 
Refinement of some symmetry elements was terminated before convergence was reached.
Some symmetry elements may remain unidentified.
Molecule has the following symmetry elements: (C2) 2*(sigma) 
It seems to be the C2v point group
c2v symmetry found (for desy threshold:  0.10E+00) used in thermo
  q data taken from xtbrestart
  CAMM data taken from xtbrestart
 
             =======================================
             |                                     |
             |         Numerical Hessian           |
             |                                     |
             =======================================
step length          :   0.00500
SCC accuracy         :   0.30000
Hessian scale factor :   1.00000
frozen atoms in %    :   0.00000    0
RMS gradient         :   0.00021
estimated CPU  time      0.00 min
estimated wall time      0.00 min
 
 writing file <hessian>.
 
 projected vibrational frequencies (cm-1)
eig.   :       -0.00    -0.00    -0.00     0.00     0.00     0.00
eig.   :      208.47   246.29   412.71   958.52  1078.37  1122.07
eig.   :     1130.83  1152.11  1226.83  1406.33  1410.62  1468.41
eig.   :     1473.20  1488.20  1495.35  2889.08  2890.22  2910.81
eig.   :     2917.33  3031.54  3031.83
 reduced masses (amu)
   1:  8.32   2: 12.12   3: 10.19   4: 10.30   5:  9.94   6:  9.65   7:  1.28   8:  4.55
   9:  8.45  10: 10.12  11:  3.89  12:  3.09  13: 13.24  14:  4.50  15:  7.24  16:  2.33
  17:  2.65  18:  1.52  19:  1.55  20:  1.62  21:  1.54  22:  1.91  23:  1.95  24:  1.45
  25:  1.40  26:  1.72  27:  1.70
 IR intensities (amu)
   1:  0.35   2:  0.22   3:  0.18   4:  0.09   5:  0.16   6:  0.08   7:  0.00   8:  0.36
   9:  0.26  10:  0.68  11:  0.32  12:  0.01  13:  1.07  14:  0.41  15:  0.55  16:  0.13
  17:  0.14  18:  0.00  19:  0.03  20:  0.10  21:  0.00  22:  0.48  23:  0.10  24:  0.19
  25:  0.36  26:  0.15  27:  0.21
 output can be read by thermo (or use thermo option).
 writing <g98.out> molden fake output.
 recommended (thermochemical) frequency scaling factor: 1.0
                    ==================
                    thermo calculation
                    ==================
Nvib :   21 Nimag : 0  symmetry :  c2v  rot number :  2  scale factor : 1.00 sthr :  50.
omega=208.47     Gvib=    -0.613     Grot=    -0.633     Gused=    -0.613
omega=246.29     Gvib=    -0.524     Grot=    -0.584     Gused=    -0.524
 
   temp. (K)  partition function   enthalpy   heat capacity  entropy
                                   cal/mol     cal/K/mol   cal/K/mol   J/K/mol
 298.15  VIB   2.72                  955.618      7.234      5.196
         ROT  0.725E+04              888.752      2.981     20.646
         INT  0.197E+05             1844.370     10.214     25.842
         TR   0.303E+27             1481.254      4.968     37.391
         TOT                        3325.6240    15.1825    63.2328   264.5651
                     Eh         kcal/mol          kJ/mol 
ZPVE            0.773418E-01     48.5327         203.060    
H(0)-H(T)+PV    0.529972E-02     3.32562         13.9144    
H(T)            0.826415E-01     51.8583         216.974    
T*S             0.300439E-01     18.8529         78.8801    
G(T)            0.525976E-01     33.0055         138.094    
    -11.33593792  <=== TOTAL FREE ENERGY in Eh incl. el.,ZPVE,RRHO,solv. parts
 
Eat (element increment corrected) /kcal :   873.062
        -107.253  <=== HOF(298)/kcal, to be compared to exptl. data
 
 normal mode %tage of torsion character
   1:  0.00   2:  0.00   3:  0.00   4:  0.00   5:  0.00   6:  0.00   7:  0.94   8:  0.89
   9:  0.02  10:  0.14  11:  0.11  12:  0.38  13:  0.11  14:  0.45  15:  0.05  16:  0.24
  17:  0.22  18:  0.23  19:  0.19  20:  0.63  21:  0.62  22:  0.09  23:  0.13  24:  0.02
  25:  0.01  26:  0.02  27:  0.00
 recommended # of modes for mode following           4
 
speedup  0.95
cpu  time for all    0.31 s
wall time for all    0.32 s
