 Entering Gaussian System
 *********************************************
 Gaussian 98:
 frequency output generated by the xtb code
 *********************************************
                         Standard orientation:
 --------------------------------------------------------------------
  Center     Atomic     Atomic              Coordinates (Angstroms)
  Number     Number      Type              X           Y           Z
 --------------------------------------------------------------------
    1          6             0       -0.182991   -1.191809    0.969518
    2          1             0        0.218015   -2.200501    1.042627
    3          1             0        0.177624   -0.721306    0.045756
    4          1             0       -1.279105   -1.236242    0.934628
    5          8             0        0.263618   -0.496431    2.103793
    6          6             0       -0.181039    0.834155    2.138560
    7          1             0       -1.277035    0.888275    2.161192
    8          1             0        0.222056    1.275472    3.047628
    9          1             0        0.179047    1.397800    1.268176
 --------------------------------------------------------------------
     1 basis functions        1 primitive gaussians
     1 alpha electrons        1 beta electrons
 
 Harmonic frequencies (cm**-1), IR intensities (KM/Mole),
 Raman scattering activities (A**4/amu), Raman depolarization ratios,
 reduced masses (AMU), force constants (mDyne/A) and normal coordinates:
                      1                      2                      3
                        a                      a                      a 
 Frequencies --   208.4705               246.2851               412.7098
 Red. masses --     1.2820                 4.5451                 8.4465
 Frc consts  --     0.0000                 0.0000                 0.0000
 IR Inten    --     0.0009                 0.3636                 0.2639
 Raman Activ --     0.0000                 0.0000                 0.0000
 Depolar     --     0.0000                 0.0000                 0.0000
 Atom AN      X      Y      Z        X      Y      Z        X      Y      Z
   1   6    -0.09  -0.03   0.06     0.14   0.05  -0.08    -0.09   0.42   0.09
   2   1     0.30   0.11  -0.18     0.35   0.12  -0.21    -0.13   0.06  -0.19
   3   1    -0.37   0.20  -0.01    -0.15   0.27   0.03    -0.04   0.25   0.08
   4   1    -0.02  -0.34   0.25     0.05  -0.31   0.03    -0.04   0.25   0.08
   5   8    -0.00  -0.00   0.00    -0.36  -0.13   0.22     0.27  -0.19   0.33
   6   6     0.09   0.03  -0.06     0.14   0.05  -0.08    -0.09  -0.29  -0.32
   7   1     0.02   0.04  -0.42     0.05   0.13   0.28    -0.04  -0.19  -0.18
   8   1    -0.30  -0.10   0.18     0.35   0.12  -0.21    -0.13   0.13  -0.15
   9   1     0.37   0.09   0.18    -0.15  -0.16  -0.22    -0.04  -0.20  -0.18
                      4                      5                      6
                        a                      a                      a 
 Frequencies --   958.5208              1078.3744              1122.0700
 Red. masses --    10.1179                 3.8929                 3.0932
 Frc consts  --     0.0000                 0.0000                 0.0000
 IR Inten    --     0.6806                 0.3185                 0.0137
 Raman Activ --     0.0000                 0.0000                 0.0000
 Depolar     --     0.0000                 0.0000                 0.0000
 Atom AN      X      Y      Z        X      Y      Z        X      Y      Z
   1   6     0.10   0.36   0.37    -0.20   0.13  -0.25     0.25   0.08  -0.16
   2   1     0.12   0.15   0.29     0.18   0.16   0.39    -0.14  -0.05   0.08
   3   1     0.03  -0.02   0.03     0.01  -0.23  -0.17    -0.25  -0.22  -0.28
   4   1     0.02  -0.02   0.03    -0.03  -0.24  -0.14     0.04   0.15   0.41
   5   8    -0.26   0.18  -0.32     0.00   0.12   0.07    -0.00   0.01   0.00
   6   6     0.10  -0.50  -0.13     0.20  -0.15   0.24    -0.25  -0.09   0.15
   7   1     0.02  -0.02   0.04     0.03  -0.24  -0.14    -0.04   0.43  -0.07
   8   1     0.12  -0.32   0.02    -0.18   0.42  -0.06     0.14   0.05  -0.09
   9   1     0.03  -0.01   0.03    -0.01  -0.26  -0.12     0.24  -0.35  -0.05
                      7                      8                      9
                        a                      a                      a 
 Frequencies --  1130.8298              1152.1122              1226.8334
 Red. masses --    13.2381                 4.4970                 7.2390
 Frc consts  --     0.0000                 0.0000                 0.0000
 IR Inten    --     1.0738                 0.4133                 0.5467
 Raman Activ --     0.0000                 0.0000                 0.0000
 Depolar     --     0.0000                 0.0000                 0.0000
 Atom AN      X      Y      Z        X      Y      Z        X      Y      Z
   1   6    -0.10  -0.28  -0.32     0.25   0.09  -0.15     0.21  -0.20   0.22
   2   1    -0.06  -0.08  -0.16    -0.12  -0.04   0.07    -0.14  -0.15  -0.32
   3   1    -0.02   0.05   0.00    -0.24  -0.20  -0.26    -0.05   0.19   0.12
   4   1    -0.02   0.05  -0.01     0.03   0.13   0.39     0.02   0.22   0.08
   5   8     0.00   0.63   0.37    -0.26  -0.09   0.16    -0.27   0.19  -0.33
   6   6     0.10  -0.42  -0.09     0.25   0.09  -0.15     0.21  -0.09   0.28
   7   1     0.02   0.02   0.05     0.03  -0.40   0.08     0.02  -0.18  -0.15
   8   1     0.06  -0.18   0.01    -0.12  -0.04   0.08    -0.14   0.35  -0.03
   9   1     0.02   0.03   0.05    -0.24   0.33   0.05    -0.05  -0.20  -0.11
                     10                     11                     12
                        a                      a                      a 
 Frequencies --  1406.3332              1410.6154              1468.4139
 Red. masses --     2.3260                 2.6461                 1.5156
 Frc consts  --     0.0000                 0.0000                 0.0000
 IR Inten    --     0.1336                 0.1385                 0.0006
 Raman Activ --     0.0000                 0.0000                 0.0000
 Depolar     --     0.0000                 0.0000                 0.0000
 Atom AN      X      Y      Z        X      Y      Z        X      Y      Z
   1   6     0.05   0.15   0.16    -0.05  -0.18  -0.19     0.13   0.04  -0.08
   2   1    -0.18  -0.08  -0.35     0.18   0.08   0.34    -0.42  -0.15   0.25
   3   1    -0.10  -0.31  -0.20     0.07   0.31   0.18    -0.12   0.30   0.10
   4   1     0.02  -0.27  -0.27    -0.02   0.27   0.24     0.02  -0.33  -0.04
   5   8     0.00   0.11   0.07    -0.02   0.02  -0.03     0.00   0.00   0.00
   6   6    -0.04   0.21   0.05    -0.05   0.26   0.06    -0.12  -0.04   0.08
   7   1    -0.02  -0.36  -0.09    -0.02  -0.35  -0.12    -0.02  -0.20  -0.26
   8   1     0.18  -0.34   0.10     0.18  -0.34   0.10     0.41   0.14  -0.25
   9   1     0.10  -0.32  -0.16     0.07  -0.32  -0.18     0.12   0.24   0.20
                     13                     14                     15
                        a                      a                      a 
 Frequencies --  1473.2001              1488.2028              1495.3474
 Red. masses --     1.5532                 1.6229                 1.5430
 Frc consts  --     0.0000                 0.0000                 0.0000
 IR Inten    --     0.0280                 0.1036                 0.0040
 Raman Activ --     0.0000                 0.0000                 0.0000
 Depolar     --     0.0000                 0.0000                 0.0000
 Atom AN      X      Y      Z        X      Y      Z        X      Y      Z
   1   6     0.12   0.04  -0.08     0.09  -0.11   0.09    -0.07   0.09  -0.07
   2   1    -0.41  -0.15   0.25     0.08   0.03   0.15    -0.08  -0.04  -0.15
   3   1    -0.11   0.29   0.10    -0.45   0.11  -0.12     0.44  -0.08   0.14
   4   1     0.02  -0.32  -0.04     0.00   0.27  -0.39     0.00  -0.23   0.41
   5   8     0.04   0.01  -0.02     0.00   0.00   0.00    -0.05   0.04  -0.07
   6   6     0.13   0.04  -0.08    -0.09   0.02  -0.14    -0.07   0.02  -0.11
   7   1     0.02   0.20   0.26    -0.00  -0.20   0.42     0.00  -0.24   0.41
   8   1    -0.42  -0.15   0.26    -0.08   0.14  -0.05    -0.08   0.15  -0.05
   9   1    -0.12  -0.23  -0.21     0.44  -0.04   0.15     0.45  -0.08   0.14
                     16                     17                     18
                        a                      a                      a 
 Frequencies --  2889.0810              2890.2218              2910.8066
 Red. masses --     1.9119                 1.9455                 1.4528
 Frc consts  --     0.0000                 0.0000                 0.0000
 IR Inten    --     0.4769                 0.1015                 0.1918
 Raman Activ --     0.0000                 0.0000                 0.0000
 Depolar     --     0.0000                 0.0000                 0.0000
 Atom AN      X      Y      Z        X      Y      Z        X      Y      Z
   1   6     0.13   0.04  -0.08    -0.20  -0.07   0.12    -0.08   0.06  -0.09
   2   1     0.02   0.01  -0.01    -0.03  -0.01   0.02    -0.00  -0.01  -0.01
   3   1    -0.11  -0.16   0.31     0.17   0.26  -0.48    -0.18  -0.20   0.39
   4   1    -0.37  -0.01  -0.02     0.56   0.00   0.03     0.48   0.03  -0.01
   5   8     0.01   0.00  -0.01    -0.00  -0.00   0.00     0.00  -0.02  -0.01
   6   6     0.19   0.07  -0.12     0.13   0.05  -0.08     0.09  -0.05   0.10
   7   1    -0.55   0.03  -0.01    -0.36   0.01  -0.01    -0.51   0.01   0.03
   8   1     0.03   0.01  -0.02     0.02   0.01  -0.01     0.00  -0.01  -0.01
   9   1    -0.17  -0.30   0.47    -0.11  -0.19   0.31     0.19   0.24  -0.38
                     19                     20                     21
                        a                      a                      a 
 Frequencies --  2917.3274              3031.5448              3031.8272
 Red. masses --     1.3975                 1.7150                 1.6968
 Frc consts  --     0.0000                 0.0000                 0.0000
 IR Inten    --     0.3641                 0.1526                 0.2116
 Raman Activ --     0.0000                 0.0000                 0.0000
 Depolar     --     0.0000                 0.0000                 0.0000
 Atom AN      X      Y      Z        X      Y      Z        X      Y      Z
   1   6    -0.08   0.05  -0.10    -0.04   0.09  -0.01     0.09  -0.22   0.02
   2   1    -0.01   0.02  -0.01     0.13  -0.33   0.03    -0.33   0.83  -0.07
   3   1    -0.19  -0.21   0.41    -0.01   0.01   0.01     0.01  -0.03   0.02
   4   1     0.50   0.03  -0.01     0.01   0.01  -0.00     0.03  -0.03   0.01
   5   8    -0.01   0.01  -0.02    -0.00  -0.00  -0.00     0.00  -0.01  -0.01
   6   6    -0.08   0.05  -0.09    -0.09  -0.09  -0.20    -0.03  -0.04  -0.07
   7   1     0.49  -0.01  -0.03    -0.01  -0.01  -0.03    -0.02  -0.00  -0.01
   8   1    -0.01   0.00  -0.02     0.34   0.36   0.75     0.13   0.14   0.30
   9   1    -0.18  -0.24   0.36    -0.02  -0.01  -0.03     0.00   0.01  -0.02
