 Entering Gaussian System
 *********************************************
 Gaussian 98:
 frequency output generated by the xtb code
 *********************************************
                         Standard orientation:
 --------------------------------------------------------------------
  Center     Atomic     Atomic              Coordinates (Angstroms)
  Number     Number      Type              X           Y           Z
 --------------------------------------------------------------------
    1          6             0        0.000002    0.000001    0.658218
    2          1             0        0.000009    0.914074    1.229075
    3          1             0       -0.000000   -0.914070    1.229078
    4          6             0       -0.000002   -0.000001   -0.658218
    5          1             0       -0.000009   -0.914074   -1.229075
    6          1             0        0.000000    0.914070   -1.229078
 --------------------------------------------------------------------
     1 basis functions        1 primitive gaussians
     1 alpha electrons        1 beta electrons
 
 Harmonic frequencies (cm**-1), IR intensities (KM/Mole),
 Raman scattering activities (A**4/amu), Raman depolarization ratios,
 reduced masses (AMU), force constants (mDyne/A) and normal coordinates:
                      1                      2                      3
                        a                      a                      a 
 Frequencies --   841.0380               872.0127              1020.7939
 Red. masses --     1.4293                 5.0698                 2.5892
 Frc consts  --     0.0000                 0.0000                 0.0000
 IR Inten    --     0.0195                 0.0007                 0.2773
 Raman Activ --     0.0000                 0.0000                 0.0000
 Depolar     --     0.0000                 0.0000                 0.0000
 Atom AN      X      Y      Z        X      Y      Z        X      Y      Z
   1   6     0.00  -0.14  -0.00    -0.43   0.00   0.00     0.27  -0.00   0.00
   2   1     0.00   0.24  -0.43     0.40   0.00  -0.00    -0.46   0.00  -0.00
   3   1    -0.00   0.24   0.43     0.40  -0.00  -0.00    -0.46  -0.00  -0.00
   4   6    -0.00  -0.14  -0.00     0.43  -0.00   0.00     0.27  -0.00   0.00
   5   1     0.00   0.24  -0.43    -0.40   0.00  -0.00    -0.46   0.00  -0.00
   6   1     0.00   0.24   0.43    -0.40   0.00   0.00    -0.46  -0.00  -0.00
                      4                      5                      6
                        a                      a                      a 
 Frequencies --  1034.9877              1183.5658              1393.9031
 Red. masses --     1.0079                 5.2322                 1.8138
 Frc consts  --     0.0000                 0.0000                 0.0000
 IR Inten    --     0.0001                 0.0001                 0.0001
 Raman Activ --     0.0000                 0.0000                 0.0000
 Depolar     --     0.0000                 0.0000                 0.0000
 Atom AN      X      Y      Z        X      Y      Z        X      Y      Z
   1   6    -0.00   0.00  -0.00    -0.00  -0.44  -0.00    -0.00   0.00  -0.19
   2   1    -0.50   0.00   0.00    -0.00   0.13  -0.37    -0.00   0.21  -0.43
   3   1     0.50  -0.00   0.00     0.00   0.13   0.37    -0.00  -0.21  -0.43
   4   6     0.00  -0.00  -0.00     0.00   0.44   0.00     0.00  -0.00   0.19
   5   1    -0.50   0.00   0.00    -0.00  -0.13   0.37    -0.00  -0.21   0.43
   6   1     0.50  -0.00   0.00    -0.00  -0.13  -0.37    -0.00   0.21   0.43
                      7                      8                      9
                        a                      a                      a 
 Frequencies --  1419.7133              1704.3466              3097.3692
 Red. masses --     2.1498                10.6146                 1.5985
 Frc consts  --     0.0000                 0.0000                 0.0000
 IR Inten    --     0.0486                 0.0003                 0.0000
 Raman Activ --     0.0000                 0.0000                 0.0000
 Depolar     --     0.0000                 0.0000                 0.0000
 Atom AN      X      Y      Z        X      Y      Z        X      Y      Z
   1   6     0.00  -0.00   0.23     0.00   0.00   0.66    -0.00   0.00  -0.16
   2   1    -0.00   0.26  -0.39     0.00   0.17  -0.06     0.00   0.42   0.24
   3   1     0.00  -0.26  -0.39    -0.00  -0.17  -0.06    -0.00  -0.42   0.24
   4   6    -0.00  -0.00   0.23    -0.00  -0.00  -0.66    -0.00  -0.00   0.16
   5   1     0.00   0.26  -0.39    -0.00  -0.17   0.06    -0.00  -0.42  -0.24
   6   1     0.00  -0.26  -0.39    -0.00   0.17   0.06     0.00   0.42  -0.24
                     10                     11                     12
                        a                      a                      a 
 Frequencies --  3098.1156              3105.6975              3130.1575
 Red. masses --     1.4473                 2.0224                 2.1678
 Frc consts  --     0.0000                 0.0000                 0.0000
 IR Inten    --     0.2396                 0.0001                 0.3792
 Raman Activ --     0.0000                 0.0000                 0.0000
 Depolar     --     0.0000                 0.0000                 0.0000
 Atom AN      X      Y      Z        X      Y      Z        X      Y      Z
   1   6     0.00  -0.00   0.14    -0.00  -0.21  -0.00     0.00   0.23   0.00
   2   1    -0.00  -0.42  -0.24     0.00   0.40   0.27    -0.00  -0.40  -0.26
   3   1     0.00   0.43  -0.24     0.00   0.40  -0.27    -0.00  -0.40   0.26
   4   6     0.00  -0.00   0.14     0.00   0.21   0.00     0.00   0.23   0.00
   5   1    -0.00  -0.42  -0.24    -0.00  -0.40  -0.27    -0.00  -0.40  -0.26
   6   1     0.00   0.42  -0.24    -0.00  -0.40   0.27    -0.00  -0.40   0.26
