 Entering Gaussian System
 *********************************************
 Gaussian 98:
 frequency output generated by the xtb code
 *********************************************
                         Standard orientation:
 --------------------------------------------------------------------
  Center     Atomic     Atomic              Coordinates (Angstroms)
  Number     Number      Type              X           Y           Z
 --------------------------------------------------------------------
    1          6             0       -0.000000   -0.000000    0.658218
    2          1             0        0.000000    0.914072    1.229077
    3          1             0        0.000000   -0.914072    1.229077
    4          6             0        0.000000    0.000000   -0.658218
    5          1             0       -0.000000   -0.914072   -1.229077
    6          1             0       -0.000000    0.914072   -1.229077
 --------------------------------------------------------------------
     1 basis functions        1 primitive gaussians
     1 alpha electrons        1 beta electrons
 
 Harmonic frequencies (cm**-1), IR intensities (KM/Mole),
 Raman scattering activities (A**4/amu), Raman depolarization ratios,
 reduced masses (AMU), force constants (mDyne/A) and normal coordinates:
                      1                      2                      3
                        a                      a                      a 
 Frequencies --   872.0127              1020.7939              1034.9877
 Red. masses --    99.0000                99.0000                99.0000
 Frc consts  --    99.0000                99.0000                99.0000
 IR Inten    --    99.0000                99.0000                99.0000
 Raman Activ --     0.0000                 0.0000                 0.0000
 Depolar     --     0.0000                 0.0000                 0.0000
 Atom AN      X      Y      Z        X      Y      Z        X      Y      Z
   1   6    -0.43   0.00   0.00     0.27  -0.00   0.00    -0.00   0.00  -0.00
   2   1     0.40   0.00  -0.00    -0.46   0.00  -0.00    -0.50   0.00   0.00
   3   1     0.40  -0.00  -0.00    -0.46  -0.00  -0.00     0.50  -0.00   0.00
   4   6     0.43  -0.00   0.00     0.27  -0.00   0.00     0.00  -0.00  -0.00
   5   1    -0.40   0.00  -0.00    -0.46   0.00  -0.00    -0.50   0.00   0.00
   6   1    -0.40   0.00   0.00    -0.46  -0.00  -0.00     0.50  -0.00   0.00
                      4                      5                      6
                        a                      a                      a 
 Frequencies --   841.0380              1419.7133              1183.5658
 Red. masses --    99.0000                99.0000                99.0000
 Frc consts  --    99.0000                99.0000                99.0000
 IR Inten    --    99.0000                99.0000                99.0000
 Raman Activ --     0.0000                 0.0000                 0.0000
 Depolar     --     0.0000                 0.0000                 0.0000
 Atom AN      X      Y      Z        X      Y      Z        X      Y      Z
   1   6     0.00  -0.14  -0.00     0.00  -0.00   0.23    -0.00  -0.44  -0.00
   2   1     0.00   0.24  -0.43    -0.00   0.26  -0.39    -0.00   0.13  -0.37
   3   1    -0.00   0.24   0.43     0.00  -0.26  -0.39     0.00   0.13   0.37
   4   6    -0.00  -0.14  -0.00    -0.00  -0.00   0.23     0.00   0.44   0.00
   5   1     0.00   0.24  -0.43     0.00   0.26  -0.39    -0.00  -0.13   0.37
   6   1     0.00   0.24   0.43     0.00  -0.26  -0.39    -0.00  -0.13  -0.37
                      7                      8                      9
                        a                      a                      a 
 Frequencies --  1393.9031              1704.3466              3098.1156
 Red. masses --    99.0000                99.0000                99.0000
 Frc consts  --    99.0000                99.0000                99.0000
 IR Inten    --    99.0000                99.0000                99.0000
 Raman Activ --     0.0000                 0.0000                 0.0000
 Depolar     --     0.0000                 0.0000                 0.0000
 Atom AN      X      Y      Z        X      Y      Z        X      Y      Z
   1   6    -0.00   0.00  -0.19     0.00   0.00   0.66     0.00  -0.00   0.14
   2   1    -0.00   0.21  -0.43     0.00   0.17  -0.06    -0.00  -0.42  -0.24
   3   1    -0.00  -0.21  -0.43    -0.00  -0.17  -0.06     0.00   0.43  -0.24
   4   6     0.00  -0.00   0.19    -0.00  -0.00  -0.66     0.00  -0.00   0.14
   5   1    -0.00  -0.21   0.43    -0.00  -0.17   0.06    -0.00  -0.42  -0.24
   6   1    -0.00   0.21   0.43    -0.00   0.17   0.06     0.00   0.42  -0.24
                     10                     11                     12
                        a                      a                      a 
 Frequencies --  3105.6975              3097.3692              3130.1575
 Red. masses --    99.0000                99.0000                99.0000
 Frc consts  --    99.0000                99.0000                99.0000
 IR Inten    --    99.0000                99.0000                99.0000
 Raman Activ --     0.0000                 0.0000                 0.0000
 Depolar     --     0.0000                 0.0000                 0.0000
 Atom AN      X      Y      Z        X      Y      Z        X      Y      Z
   1   6    -0.00  -0.21  -0.00    -0.00   0.00  -0.16     0.00   0.23   0.00
   2   1     0.00   0.40   0.27     0.00   0.42   0.24    -0.00  -0.40  -0.26
   3   1     0.00   0.40  -0.27    -0.00  -0.42   0.24    -0.00  -0.40   0.26
   4   6     0.00   0.21   0.00    -0.00  -0.00   0.16     0.00   0.23   0.00
   5   1    -0.00  -0.40  -0.27    -0.00  -0.42  -0.24    -0.00  -0.40  -0.26
   6   1    -0.00  -0.40   0.27     0.00   0.42  -0.24    -0.00  -0.40   0.26
