 Entering Gaussian System
 *********************************************
 Gaussian 98:
 frequency output generated by the xtb code
 *********************************************
                         Standard orientation:
 --------------------------------------------------------------------
  Center     Atomic     Atomic              Coordinates (Angstroms)
  Number     Number      Type              X           Y           Z
 --------------------------------------------------------------------
    1          6             0       -7.976076   -1.888183   -0.011960
    2          6             0       -6.450351   -1.900224    0.009030
    3          6             0       -5.905191   -0.475155   -0.010919
    4          6             0       -6.448888    0.320505    1.172158
    5          6             0       -7.974558    0.332863    1.150463
    6          6             0       -8.519612   -1.092196    1.170981
    7          1             0       -4.813531   -0.493357    0.022388
    8          1             0       -6.105402   -2.406429    0.913885
    9          1             0       -6.070346   -2.456520   -0.850809
   10          1             0       -8.321034   -1.432409   -0.943237
   11          1             0       -8.357206   -2.911341    0.020782
   12          1             0       -6.104462   -0.135829    2.103344
   13          1             0       -6.067412    1.343521    1.140032
   14          1             0       -8.355008    0.889780    2.009665
   15          1             0       -8.318945    0.838422    0.245047
   16          1             0       -8.221252   -1.579786    2.102231
   17          1             0       -9.611269   -1.074163    1.137848
   18          1             0       -6.203328    0.012741   -0.942082
 --------------------------------------------------------------------
     1 basis functions        1 primitive gaussians
     1 alpha electrons        1 beta electrons
 
 Harmonic frequencies (cm**-1), IR intensities (KM/Mole),
 Raman scattering activities (A**4/amu), Raman depolarization ratios,
 reduced masses (AMU), force constants (mDyne/A) and normal coordinates:
                      1                      2                      3
                        a                      a                      a 
 Frequencies --   231.9609               231.9840               375.8887
 Red. masses --    99.0000                99.0000                99.0000
 Frc consts  --    99.0000                99.0000                99.0000
 IR Inten    --    99.0000                99.0000                99.0000
 Raman Activ --     0.0000                 0.0000                 0.0000
 Depolar     --     0.0000                 0.0000                 0.0000
 Atom AN      X      Y      Z        X      Y      Z        X      Y      Z
   1   6     0.04   0.17  -0.24    -0.12   0.20  -0.13     0.01   0.22  -0.13
   2   6     0.01  -0.09   0.34    -0.12  -0.05  -0.12    -0.01   0.02   0.26
   3   6    -0.04  -0.09  -0.11     0.22  -0.16   0.25    -0.21   0.07  -0.13
   4   6     0.04   0.17  -0.24    -0.12   0.20  -0.13    -0.01  -0.22   0.13
   5   6     0.01  -0.09   0.34    -0.12  -0.05  -0.12     0.01  -0.02  -0.26
   6   6    -0.04  -0.09  -0.11     0.22  -0.16   0.25     0.21  -0.07   0.13
   7   1    -0.01   0.01  -0.06     0.06  -0.13   0.25    -0.06   0.10  -0.19
   8   1    -0.11   0.09   0.21    -0.08  -0.11  -0.07    -0.08   0.12   0.17
   9   1     0.09  -0.15   0.22    -0.05   0.04  -0.08     0.07  -0.10   0.18
  10   1     0.13   0.16  -0.06    -0.03   0.20   0.03     0.08   0.21   0.00
  11   1    -0.07   0.07  -0.20    -0.08   0.07  -0.16    -0.07   0.09  -0.19
  12   1     0.13   0.16  -0.06    -0.03   0.20   0.03    -0.08  -0.21  -0.00
  13   1    -0.07   0.07  -0.20    -0.08   0.07  -0.16     0.07  -0.09   0.19
  14   1     0.09  -0.15   0.22    -0.05   0.04  -0.08    -0.07   0.10  -0.18
  15   1    -0.11   0.09   0.21    -0.08  -0.11  -0.07     0.08  -0.12  -0.17
  16   1    -0.05  -0.11  -0.07     0.26  -0.04   0.01     0.23   0.00  -0.00
  17   1    -0.01   0.01  -0.06     0.06  -0.13   0.25     0.06  -0.10   0.19
  18   1    -0.05  -0.11  -0.07     0.26  -0.04   0.01    -0.23  -0.00   0.00
                      4                      5                      6
                        a                      a                      a 
 Frequencies --   418.9371               418.9701               540.0224
 Red. masses --    99.0000                99.0000                99.0000
 Frc consts  --    99.0000                99.0000                99.0000
 IR Inten    --    99.0000                99.0000                99.0000
 Raman Activ --     0.0000                 0.0000                 0.0000
 Depolar     --     0.0000                 0.0000                 0.0000
 Atom AN      X      Y      Z        X      Y      Z        X      Y      Z
   1   6     0.07   0.28   0.22     0.29   0.16   0.07     0.12   0.16   0.11
   2   6     0.12   0.18   0.03     0.27  -0.33  -0.14     0.12  -0.18  -0.07
   3   6     0.36   0.04  -0.23    -0.13  -0.21  -0.02    -0.19  -0.06   0.11
   4   6    -0.07  -0.28  -0.22    -0.29  -0.16  -0.07     0.12   0.16   0.11
   5   6    -0.12  -0.18  -0.03    -0.27   0.33   0.14     0.12  -0.18  -0.07
   6   6    -0.36  -0.04   0.23     0.13   0.21   0.02    -0.19  -0.06   0.11
   7   1     0.10  -0.01   0.06    -0.03   0.06   0.01    -0.05   0.09  -0.17
   8   1     0.06   0.09   0.02     0.14  -0.16  -0.10     0.13  -0.19  -0.14
   9   1    -0.05  -0.03   0.02     0.00  -0.03  -0.12    -0.07   0.10  -0.16
  10   1     0.04   0.16   0.09     0.14   0.10   0.02     0.13   0.23   0.08
  11   1     0.04   0.07  -0.06    -0.03   0.09  -0.01    -0.07   0.08  -0.17
  12   1    -0.04  -0.16  -0.10    -0.14  -0.10  -0.02     0.13   0.23   0.08
  13   1    -0.04  -0.07   0.06     0.03  -0.09   0.01    -0.07   0.08  -0.17
  14   1     0.05   0.03  -0.02    -0.00   0.03   0.12    -0.07   0.10  -0.16
  15   1    -0.06  -0.09  -0.02    -0.14   0.16   0.10     0.13  -0.19  -0.14
  16   1    -0.21  -0.01   0.10     0.07   0.10   0.02    -0.26  -0.04   0.08
  17   1    -0.10   0.01  -0.06     0.03  -0.06  -0.01    -0.05   0.09  -0.17
  18   1     0.21   0.01  -0.10    -0.07  -0.10  -0.02    -0.26  -0.04   0.08
                      7                      8                      9
                        a                      a                      a 
 Frequencies --   823.1776               823.2449               869.1510
 Red. masses --    99.0000                99.0000                99.0000
 Frc consts  --    99.0000                99.0000                99.0000
 IR Inten    --    99.0000                99.0000                99.0000
 Raman Activ --     0.0000                 0.0000                 0.0000
 Depolar     --     0.0000                 0.0000                 0.0000
 Atom AN      X      Y      Z        X      Y      Z        X      Y      Z
   1   6     0.12   0.12  -0.13     0.06  -0.23   0.05    -0.19  -0.25  -0.16
   2   6     0.05  -0.03  -0.27    -0.12  -0.09  -0.05     0.19  -0.28  -0.11
   3   6    -0.09  -0.10  -0.11    -0.23   0.11  -0.09     0.31   0.09  -0.16
   4   6    -0.12  -0.12   0.13    -0.06   0.23  -0.05     0.19   0.25   0.16
   5   6    -0.05   0.03   0.27     0.12   0.09   0.05    -0.19   0.28   0.11
   6   6     0.09   0.10   0.11     0.23  -0.11   0.09    -0.31  -0.09   0.16
   7   1    -0.03  -0.04   0.11    -0.07  -0.15   0.28     0.09   0.08  -0.15
   8   1    -0.17   0.23   0.14     0.02   0.07   0.02     0.00  -0.00   0.03
   9   1     0.17  -0.25   0.16     0.05  -0.03   0.03     0.11  -0.16   0.04
  10   1    -0.14  -0.15  -0.06     0.10   0.21   0.11    -0.00   0.02  -0.02
  11   1     0.10   0.01   0.20    -0.14  -0.01  -0.22    -0.11  -0.05  -0.15
  12   1     0.14   0.15   0.06    -0.10  -0.21  -0.11     0.00  -0.02   0.02
  13   1    -0.10  -0.01  -0.20     0.14   0.01   0.22     0.11   0.05   0.15
  14   1    -0.17   0.25  -0.16    -0.05   0.03  -0.03    -0.11   0.16  -0.04
  15   1     0.17  -0.23  -0.14    -0.02  -0.07  -0.02    -0.00   0.00  -0.03
  16   1    -0.10  -0.07   0.02    -0.28  -0.04   0.12     0.02  -0.01   0.02
  17   1     0.03   0.04  -0.11     0.07   0.15  -0.28    -0.09  -0.08   0.15
  18   1     0.10   0.07  -0.02     0.28   0.04  -0.12    -0.02   0.01  -0.02
                     10                     11                     12
                        a                      a                      a 
 Frequencies --   931.7843               931.8163               937.9746
 Red. masses --    99.0000                99.0000                99.0000
 Frc consts  --    99.0000                99.0000                99.0000
 IR Inten    --    99.0000                99.0000                99.0000
 Raman Activ --     0.0000                 0.0000                 0.0000
 Depolar     --     0.0000                 0.0000                 0.0000
 Atom AN      X      Y      Z        X      Y      Z        X      Y      Z
   1   6    -0.14  -0.16   0.08    -0.02   0.23   0.01     0.07   0.10   0.30
   2   6     0.11  -0.10  -0.25    -0.09  -0.10  -0.06    -0.19  -0.13   0.00
   3   6     0.08   0.11   0.07     0.28  -0.06   0.02     0.12   0.03  -0.30
   4   6    -0.14  -0.16   0.08    -0.02   0.23   0.01     0.07   0.10   0.30
   5   6     0.10  -0.10  -0.25    -0.09  -0.10  -0.06    -0.19  -0.13   0.00
   6   6     0.08   0.11   0.07     0.28  -0.06   0.02     0.12   0.03  -0.30
   7   1     0.02   0.11  -0.04     0.08   0.11  -0.26     0.03  -0.15  -0.05
   8   1    -0.07   0.21   0.11    -0.24  -0.11   0.02     0.10   0.07  -0.00
   9   1     0.17  -0.21   0.12    -0.03  -0.10   0.03    -0.26  -0.18  -0.00
  10   1    -0.08   0.19   0.15    -0.24  -0.08   0.02     0.14   0.08   0.06
  11   1    -0.16   0.00  -0.15     0.06   0.04   0.22    -0.13   0.08   0.05
  12   1    -0.08   0.19   0.15    -0.24  -0.08   0.02     0.14   0.08   0.06
  13   1    -0.16   0.00  -0.15     0.06   0.04   0.22    -0.13   0.08   0.05
  14   1     0.17  -0.21   0.12    -0.04  -0.10   0.03    -0.27  -0.18  -0.00
  15   1    -0.07   0.21   0.11    -0.24  -0.11   0.02     0.11   0.07  -0.00
  16   1    -0.06   0.21   0.14    -0.21  -0.11   0.04     0.13   0.10  -0.06
  17   1     0.02   0.11  -0.04     0.08   0.11  -0.26     0.03  -0.15  -0.05
  18   1    -0.06   0.21   0.14    -0.21  -0.11   0.04     0.13   0.10  -0.06
                     13                     14                     15
                        a                      a                      a 
 Frequencies --  1013.0619              1485.3267              1493.9003
 Red. masses --    99.0000                99.0000                99.0000
 Frc consts  --    99.0000                99.0000                99.0000
 IR Inten    --    99.0000                99.0000                99.0000
 Raman Activ --     0.0000                 0.0000                 0.0000
 Depolar     --     0.0000                 0.0000                 0.0000
 Atom AN      X      Y      Z        X      Y      Z        X      Y      Z
   1   6    -0.14  -0.29  -0.05     0.06   0.05   0.10     0.04   0.05   0.07
   2   6    -0.14   0.20   0.21     0.00   0.04  -0.00     0.03  -0.07  -0.00
   3   6     0.32   0.02  -0.04     0.09   0.05  -0.11     0.12   0.06  -0.12
   4   6    -0.14  -0.29  -0.05    -0.06  -0.05  -0.10     0.04   0.05   0.07
   5   6    -0.14   0.20   0.21    -0.00  -0.04   0.00     0.03  -0.07  -0.00
   6   6     0.32   0.02  -0.04    -0.09  -0.05   0.11     0.12   0.06  -0.12
   7   1     0.09   0.09  -0.18    -0.01  -0.17   0.33    -0.00  -0.18   0.34
   8   1     0.06  -0.08  -0.06     0.03  -0.05  -0.04    -0.06   0.13   0.10
   9   1    -0.12   0.18  -0.06     0.03  -0.05   0.05    -0.05   0.12  -0.11
  10   1     0.06   0.10   0.03    -0.13  -0.25  -0.07    -0.09  -0.20  -0.06
  11   1    -0.12  -0.05  -0.18    -0.13   0.04  -0.26    -0.08   0.03  -0.21
  12   1     0.06   0.10   0.03     0.13   0.25   0.07    -0.09  -0.19  -0.06
  13   1    -0.12  -0.05  -0.18     0.13  -0.04   0.26    -0.07   0.03  -0.21
  14   1    -0.12   0.18  -0.06    -0.03   0.05  -0.05    -0.05   0.12  -0.11
  15   1     0.06  -0.08  -0.06    -0.03   0.05   0.04    -0.06   0.13   0.10
  16   1    -0.11  -0.02   0.03     0.35   0.04  -0.09    -0.37  -0.05   0.09
  17   1     0.09   0.09  -0.18     0.01   0.17  -0.33    -0.00  -0.18   0.34
  18   1    -0.11  -0.02   0.03    -0.35  -0.04   0.09    -0.37  -0.05   0.09
                     16                     17                     18
                        a                      a                      a 
 Frequencies --  1495.7868               937.9969              1485.2942
 Red. masses --    99.0000                99.0000                99.0000
 Frc consts  --    99.0000                99.0000                99.0000
 IR Inten    --    99.0000                99.0000                99.0000
 Raman Activ --     0.0000                 0.0000                 0.0000
 Depolar     --     0.0000                 0.0000                 0.0000
 Atom AN      X      Y      Z        X      Y      Z        X      Y      Z
   1   6    -0.06  -0.04  -0.08     0.26  -0.03   0.05    -0.07  -0.04  -0.07
   2   6    -0.06   0.09  -0.01    -0.19   0.28  -0.10    -0.09   0.13  -0.02
   3   6     0.06   0.04  -0.08    -0.07  -0.25   0.05     0.03   0.04  -0.03
   4   6    -0.06  -0.04  -0.08     0.26  -0.03   0.05     0.07   0.04   0.07
   5   6    -0.06   0.09  -0.01    -0.19   0.28  -0.10     0.09  -0.13   0.02
   6   6     0.06   0.04  -0.08    -0.07  -0.25   0.05    -0.03  -0.04   0.03
   7   1    -0.01  -0.13   0.25    -0.02  -0.24  -0.14    -0.00  -0.06   0.12
   8   1     0.13  -0.19  -0.16    -0.10   0.15   0.04     0.18  -0.26  -0.22
   9   1     0.12  -0.18   0.17    -0.00  -0.00   0.04     0.17  -0.25   0.24
  10   1     0.13   0.24   0.06    -0.04   0.09   0.10     0.12   0.21   0.06
  11   1     0.12  -0.04   0.25     0.23  -0.07  -0.14     0.11  -0.04   0.23
  12   1     0.13   0.24   0.06    -0.04   0.09   0.10    -0.12  -0.21  -0.06
  13   1     0.12  -0.04   0.25     0.23  -0.07  -0.14    -0.11   0.04  -0.23
  14   1     0.12  -0.18   0.17    -0.00  -0.00   0.04    -0.17   0.25  -0.24
  15   1     0.13  -0.19  -0.16    -0.10   0.15   0.04    -0.18   0.26   0.22
  16   1    -0.27  -0.03   0.06    -0.07   0.07   0.10     0.12   0.02  -0.03
  17   1    -0.01  -0.13   0.25    -0.02  -0.24  -0.14     0.00   0.06  -0.12
  18   1    -0.27  -0.03   0.06    -0.07   0.07   0.10    -0.12  -0.02   0.03
                     19                     20                     21
                        a                      a                      a 
 Frequencies --  1510.2878              1178.7822              1096.4621
 Red. masses --    99.0000                99.0000                99.0000
 Frc consts  --    99.0000                99.0000                99.0000
 IR Inten    --    99.0000                99.0000                99.0000
 Raman Activ --     0.0000                 0.0000                 0.0000
 Depolar     --     0.0000                 0.0000                 0.0000
 Atom AN      X      Y      Z        X      Y      Z        X      Y      Z
   1   6     0.07   0.06   0.08    -0.10   0.14  -0.27    -0.10   0.13   0.18
   2   6    -0.07   0.10   0.00     0.10  -0.14   0.27    -0.03  -0.20  -0.00
   3   6    -0.08  -0.04   0.08    -0.10   0.14  -0.27    -0.01   0.30   0.18
   4   6    -0.07  -0.06  -0.08     0.10  -0.14   0.27     0.10  -0.13  -0.18
   5   6     0.07  -0.10  -0.00    -0.10   0.14  -0.27     0.03   0.20   0.00
   6   6     0.08   0.04  -0.08     0.10  -0.14   0.27     0.01  -0.30  -0.18
   7   1     0.00   0.13  -0.24    -0.03  -0.06   0.12    -0.00   0.34   0.18
   8   1     0.13  -0.19  -0.16     0.12  -0.17  -0.05    -0.06  -0.04   0.03
   9   1     0.12  -0.17   0.17    -0.07   0.10  -0.06    -0.09  -0.13   0.02
  10   1    -0.13  -0.24  -0.07    -0.12  -0.14  -0.11    -0.09   0.02   0.06
  11   1    -0.12   0.04  -0.24     0.07   0.00   0.12    -0.17   0.08   0.15
  12   1     0.13   0.24   0.07     0.12   0.14   0.11     0.09  -0.02  -0.06
  13   1     0.12  -0.04   0.24    -0.07  -0.00  -0.12     0.17  -0.08  -0.15
  14   1    -0.12   0.17  -0.17     0.07  -0.10   0.06     0.09   0.13  -0.02
  15   1    -0.13   0.19   0.16    -0.12   0.17   0.05     0.06   0.04  -0.03
  16   1    -0.27  -0.03   0.07    -0.17  -0.06   0.11    -0.00  -0.15  -0.08
  17   1    -0.00  -0.13   0.24     0.03   0.06  -0.12     0.00  -0.34  -0.18
  18   1     0.27   0.03  -0.07     0.17   0.06  -0.11     0.00   0.15   0.08
                     22                     23                     24
                        a                      a                      a 
 Frequencies --  1251.5789              1493.8838              1096.4942
 Red. masses --    99.0000                99.0000                99.0000
 Frc consts  --    99.0000                99.0000                99.0000
 IR Inten    --    99.0000                99.0000                99.0000
 Raman Activ --     0.0000                 0.0000                 0.0000
 Depolar     --     0.0000                 0.0000                 0.0000
 Atom AN      X      Y      Z        X      Y      Z        X      Y      Z
   1   6    -0.06   0.06  -0.18    -0.09  -0.07  -0.09     0.29  -0.04  -0.07
   2   6    -0.02   0.05  -0.07     0.10  -0.13  -0.00    -0.30  -0.13   0.00
   3   6     0.05  -0.13   0.25     0.01   0.02   0.00     0.10   0.09  -0.08
   4   6    -0.06   0.07  -0.18    -0.09  -0.07  -0.09    -0.29   0.04   0.07
   5   6    -0.02   0.05  -0.07     0.10  -0.13  -0.00     0.30   0.13  -0.00
   6   6     0.05  -0.13   0.25     0.01   0.02   0.00    -0.10  -0.09   0.08
   7   1     0.02  -0.01  -0.08    -0.00  -0.04   0.01     0.02   0.07  -0.03
   8   1     0.29   0.26   0.01    -0.17   0.24   0.20    -0.13  -0.09  -0.01
   9   1    -0.17  -0.14   0.01    -0.16   0.22  -0.22    -0.31  -0.18  -0.01
  10   1     0.18  -0.16  -0.20     0.16   0.27   0.07     0.11  -0.06  -0.05
  11   1    -0.11   0.05   0.12     0.15  -0.06   0.27     0.27  -0.09  -0.11
  12   1     0.18  -0.16  -0.20     0.16   0.27   0.07    -0.11   0.06   0.05
  13   1    -0.11   0.05   0.12     0.15  -0.06   0.27    -0.28   0.09   0.11
  14   1    -0.16  -0.13   0.01    -0.16   0.22  -0.22     0.31   0.18   0.01
  15   1     0.29   0.26   0.01    -0.17   0.24   0.20     0.13   0.09   0.01
  16   1    -0.12   0.03   0.14    -0.03  -0.02  -0.00     0.02  -0.03   0.01
  17   1     0.02  -0.01  -0.09    -0.00  -0.04   0.01    -0.02  -0.07   0.03
  18   1    -0.12   0.03   0.14    -0.03  -0.02  -0.00    -0.02   0.03  -0.01
                     25                     26                     27
                        a                      a                      a 
 Frequencies --  1063.7880              1125.2570              1251.5442
 Red. masses --    99.0000                99.0000                99.0000
 Frc consts  --    99.0000                99.0000                99.0000
 IR Inten    --    99.0000                99.0000                99.0000
 Raman Activ --     0.0000                 0.0000                 0.0000
 Depolar     --     0.0000                 0.0000                 0.0000
 Atom AN      X      Y      Z        X      Y      Z        X      Y      Z
   1   6    -0.01   0.00   0.01     0.21  -0.08  -0.12     0.09  -0.08   0.18
   2   6    -0.01  -0.01   0.00    -0.21  -0.14  -0.00    -0.10   0.15  -0.22
   3   6     0.00  -0.01  -0.01     0.00   0.23   0.12     0.01  -0.04   0.05
   4   6     0.01  -0.00  -0.01     0.21  -0.08  -0.12     0.08  -0.08   0.18
   5   6     0.01   0.01   0.00    -0.21  -0.14  -0.00    -0.10   0.14  -0.22
   6   6     0.00   0.01   0.01     0.00   0.23   0.12     0.01  -0.04   0.05
   7   1    -0.00  -0.17  -0.09    -0.00  -0.23  -0.12     0.00   0.20   0.09
   8   1     0.30   0.20   0.00    -0.15  -0.10  -0.00    -0.19   0.06   0.02
   9   1    -0.16  -0.11  -0.00     0.22   0.15   0.00     0.09  -0.01   0.03
  10   1     0.30  -0.12  -0.17     0.15  -0.06  -0.08     0.30  -0.02  -0.06
  11   1    -0.16   0.06   0.09    -0.22   0.08   0.12    -0.15   0.05   0.03
  12   1    -0.30   0.12   0.17     0.15  -0.06  -0.08     0.29  -0.02  -0.06
  13   1     0.16  -0.06  -0.09    -0.22   0.08   0.12    -0.15   0.05   0.02
  14   1     0.16   0.11   0.00     0.22   0.15   0.00     0.09  -0.02   0.03
  15   1    -0.30  -0.20  -0.00    -0.15  -0.10  -0.00    -0.18   0.06   0.02
  16   1    -0.00  -0.32  -0.17     0.00   0.16   0.08    -0.03  -0.36  -0.16
  17   1     0.00   0.17   0.09    -0.00  -0.23  -0.12     0.00   0.20   0.09
  18   1     0.00   0.32   0.17     0.00   0.16   0.08    -0.03  -0.36  -0.16
                     28                     29                     30
                        a                      a                      a 
 Frequencies --  1160.6418              1360.3684              1249.1862
 Red. masses --    99.0000                99.0000                99.0000
 Frc consts  --    99.0000                99.0000                99.0000
 IR Inten    --    99.0000                99.0000                99.0000
 Raman Activ --     0.0000                 0.0000                 0.0000
 Depolar     --     0.0000                 0.0000                 0.0000
 Atom AN      X      Y      Z        X      Y      Z        X      Y      Z
   1   6     0.17  -0.07  -0.10     0.26  -0.13  -0.15    -0.17   0.00  -0.02
   2   6    -0.17  -0.12  -0.00    -0.13   0.01   0.12     0.17   0.01   0.01
   3   6     0.00   0.18   0.10     0.11  -0.20  -0.09    -0.11  -0.09   0.14
   4   6     0.17  -0.07  -0.10    -0.26   0.13   0.15     0.18  -0.00   0.02
   5   6    -0.17  -0.12  -0.00     0.13  -0.01  -0.12    -0.17  -0.01  -0.01
   6   6     0.00   0.18   0.10    -0.11   0.20   0.09     0.11   0.09  -0.14
   7   1     0.00   0.28   0.15     0.03   0.12   0.02    -0.03  -0.00   0.06
   8   1    -0.13  -0.09  -0.00     0.13   0.03  -0.02     0.25   0.15   0.01
   9   1    -0.26  -0.18  -0.00     0.01   0.08  -0.01    -0.27  -0.22   0.01
  10   1     0.13  -0.05  -0.07    -0.32   0.14   0.19    -0.24   0.08   0.11
  11   1     0.26  -0.10  -0.15    -0.14   0.05   0.07     0.25  -0.11  -0.18
  12   1     0.13  -0.05  -0.07     0.32  -0.14  -0.19     0.24  -0.08  -0.11
  13   1     0.26  -0.10  -0.15     0.14  -0.05  -0.07    -0.25   0.11   0.18
  14   1    -0.26  -0.18  -0.00    -0.01  -0.08   0.01     0.27   0.22  -0.01
  15   1    -0.13  -0.09  -0.00    -0.13  -0.03   0.02    -0.26  -0.15  -0.01
  16   1     0.00   0.14   0.07     0.04  -0.23  -0.15     0.02   0.04  -0.03
  17   1     0.00   0.28   0.15    -0.03  -0.12  -0.02     0.03   0.00  -0.06
  18   1     0.00   0.14   0.07    -0.04   0.23   0.15    -0.02  -0.04   0.03
                     31                     32                     33
                        a                      a                      a 
 Frequencies --  1249.2036              1360.3551              1350.5237
 Red. masses --    99.0000                99.0000                99.0000
 Frc consts  --    99.0000                99.0000                99.0000
 IR Inten    --    99.0000                99.0000                99.0000
 Raman Activ --     0.0000                 0.0000                 0.0000
 Depolar     --     0.0000                 0.0000                 0.0000
 Atom AN      X      Y      Z        X      Y      Z        X      Y      Z
   1   6    -0.02  -0.09  -0.17     0.10   0.11  -0.05    -0.23   0.01   0.09
   2   6    -0.04   0.19  -0.02    -0.25  -0.20  -0.04     0.11  -0.03  -0.06
   3   6     0.01  -0.14  -0.09     0.10   0.21   0.12     0.03   0.27   0.13
   4   6     0.02   0.09   0.17    -0.10  -0.11   0.05    -0.23   0.01   0.09
   5   6     0.04  -0.19   0.02     0.25   0.20   0.04     0.11  -0.03  -0.06
   6   6    -0.01   0.14   0.08    -0.10  -0.21  -0.12     0.03   0.27   0.13
   7   1     0.00   0.34   0.18     0.02  -0.09  -0.09     0.01  -0.33  -0.20
   8   1     0.10   0.11  -0.01     0.31   0.23   0.01    -0.03  -0.04  -0.01
   9   1    -0.17  -0.05  -0.01     0.14   0.07   0.00    -0.03  -0.12   0.03
  10   1     0.13  -0.06  -0.12    -0.10  -0.01   0.01     0.13  -0.06  -0.08
  11   1    -0.20   0.06   0.06     0.01   0.03   0.06     0.21  -0.10  -0.19
  12   1    -0.13   0.07   0.12     0.10   0.01  -0.01     0.13  -0.06  -0.08
  13   1     0.21  -0.06  -0.06    -0.01  -0.03  -0.06     0.21  -0.10  -0.19
  14   1     0.17   0.06   0.01    -0.14  -0.07  -0.00    -0.03  -0.12   0.03
  15   1    -0.10  -0.12   0.01    -0.31  -0.23  -0.01    -0.04  -0.04  -0.01
  16   1    -0.00   0.29   0.15     0.03   0.28   0.12     0.00  -0.19  -0.10
  17   1    -0.00  -0.35  -0.18    -0.02   0.09   0.09     0.01  -0.33  -0.20
  18   1     0.00  -0.29  -0.16    -0.03  -0.28  -0.12     0.00  -0.19  -0.10
                     34                     35                     36
                        a                      a                      a 
 Frequencies --  1332.0152              1350.4853              1350.4081
 Red. masses --    99.0000                99.0000                99.0000
 Frc consts  --    99.0000                99.0000                99.0000
 IR Inten    --    99.0000                99.0000                99.0000
 Raman Activ --     0.0000                 0.0000                 0.0000
 Depolar     --     0.0000                 0.0000                 0.0000
 Atom AN      X      Y      Z        X      Y      Z        X      Y      Z
   1   6     0.17  -0.07  -0.09     0.13  -0.14  -0.11     0.20  -0.08  -0.12
   2   6     0.17   0.11   0.00     0.25   0.20   0.01    -0.19  -0.13  -0.00
   3   6     0.00   0.18   0.09    -0.10   0.06   0.06    -0.00   0.22   0.12
   4   6    -0.17   0.07   0.09     0.13  -0.14  -0.11     0.20  -0.08  -0.12
   5   6    -0.17  -0.11  -0.00     0.25   0.20   0.01    -0.19  -0.13   0.00
   6   6     0.00  -0.18  -0.09    -0.10   0.06   0.06    -0.00   0.22   0.12
   7   1    -0.00  -0.28  -0.15    -0.03  -0.14   0.02    -0.00  -0.00   0.00
   8   1    -0.13  -0.09  -0.00    -0.20  -0.13   0.00     0.26   0.18   0.00
   9   1    -0.26  -0.18  -0.00    -0.33  -0.20  -0.01    -0.02  -0.01  -0.00
  10   1    -0.13   0.05   0.07    -0.12   0.04   0.06    -0.28   0.11   0.15
  11   1    -0.26   0.10   0.15    -0.26   0.08   0.07    -0.00   0.00  -0.00
  12   1     0.13  -0.05  -0.07    -0.12   0.04   0.06    -0.28   0.11   0.15
  13   1     0.26  -0.10  -0.15    -0.26   0.08   0.07    -0.00   0.00  -0.00
  14   1     0.26   0.18   0.00    -0.33  -0.20  -0.01    -0.02  -0.01  -0.00
  15   1     0.13   0.09   0.00    -0.20  -0.13   0.00     0.26   0.18   0.00
  16   1     0.00   0.14   0.07    -0.01  -0.05  -0.02    -0.00  -0.30  -0.15
  17   1     0.00   0.28   0.15    -0.03  -0.14   0.02    -0.00  -0.00   0.00
  18   1    -0.00  -0.14  -0.07    -0.01  -0.05  -0.02    -0.00  -0.30  -0.15
                     37                     38                     39
                        a                      a                      a 
 Frequencies --  2958.2557              2959.0484              2965.3286
 Red. masses --    99.0000                99.0000                99.0000
 Frc consts  --    99.0000                99.0000                99.0000
 IR Inten    --    99.0000                99.0000                99.0000
 Raman Activ --     0.0000                 0.0000                 0.0000
 Depolar     --     0.0000                 0.0000                 0.0000
 Atom AN      X      Y      Z        X      Y      Z        X      Y      Z
   1   6    -0.01   0.07  -0.06    -0.01   0.08  -0.07     0.01   0.08  -0.04
   2   6     0.01  -0.02   0.17     0.01  -0.01   0.10     0.02  -0.02  -0.17
   3   6    -0.06   0.03  -0.06    -0.07   0.04  -0.07    -0.07   0.02  -0.04
   4   6    -0.01   0.06  -0.05     0.01  -0.09   0.08    -0.01  -0.08   0.04
   5   6     0.01  -0.02   0.15    -0.01   0.01  -0.12    -0.01   0.02   0.17
   6   6    -0.05   0.03  -0.05     0.08  -0.04   0.08     0.06  -0.01   0.04
   7   1     0.16   0.00  -0.00     0.18   0.00  -0.00     0.23  -0.00   0.01
   8   1    -0.16   0.24  -0.42    -0.10   0.14  -0.25     0.10  -0.15   0.25
   9   1     0.11  -0.16  -0.22     0.06  -0.08  -0.11    -0.17   0.24   0.37
  10   1     0.09  -0.11   0.23     0.10  -0.13   0.27     0.05  -0.06   0.14
  11   1    -0.06  -0.15  -0.00    -0.06  -0.15  -0.00    -0.09  -0.24   0.01
  12   1     0.07  -0.09   0.17    -0.12   0.16  -0.33    -0.05   0.06  -0.14
  13   1    -0.05  -0.11  -0.00     0.08   0.19   0.00     0.08   0.21  -0.01
  14   1     0.10  -0.14  -0.19    -0.07   0.11   0.15     0.16  -0.23  -0.35
  15   1    -0.14   0.21  -0.37     0.12  -0.18   0.32    -0.10   0.15  -0.25
  16   1     0.06  -0.10   0.18    -0.09   0.16  -0.30    -0.03   0.06  -0.12
  17   1     0.13   0.00  -0.00    -0.19  -0.00   0.00    -0.20   0.00  -0.01
  18   1     0.07  -0.12   0.23     0.09  -0.15   0.29     0.03  -0.06   0.12
                     40                     41                     42
                        a                      a                      a 
 Frequencies --  2958.1676              2968.0803              2965.2123
 Red. masses --    99.0000                99.0000                99.0000
 Frc consts  --    99.0000                99.0000                99.0000
 IR Inten    --    99.0000                99.0000                99.0000
 Raman Activ --     0.0000                 0.0000                 0.0000
 Depolar     --     0.0000                 0.0000                 0.0000
 Atom AN      X      Y      Z        X      Y      Z        X      Y      Z
   1   6    -0.01   0.11  -0.10    -0.03  -0.09   0.00    -0.01  -0.13   0.07
   2   6     0.00   0.00   0.00    -0.03   0.05   0.08    -0.00  -0.00  -0.00
   3   6     0.10  -0.05   0.09     0.10  -0.00   0.00    -0.13   0.04  -0.07
   4   6    -0.01   0.11  -0.09    -0.03  -0.10   0.01     0.01   0.13  -0.07
   5   6     0.00   0.00  -0.00    -0.03   0.05   0.09     0.00   0.00   0.01
   6   6     0.10  -0.05   0.10     0.10  -0.00   0.01     0.13  -0.04   0.07
   7   1    -0.24  -0.00   0.00    -0.39   0.01  -0.02     0.40  -0.01   0.01
   8   1    -0.01   0.00  -0.01    -0.00   0.00   0.03     0.00  -0.00   0.01
   9   1     0.00  -0.00  -0.00     0.13  -0.19  -0.31    -0.00   0.01   0.01
  10   1     0.13  -0.17   0.36    -0.00  -0.02   0.02    -0.08   0.10  -0.22
  11   1    -0.09  -0.24  -0.00     0.13   0.36  -0.02     0.14   0.37  -0.01
  12   1     0.13  -0.16   0.34    -0.01  -0.01  -0.00     0.09  -0.10   0.23
  13   1    -0.09  -0.22  -0.00     0.14   0.38  -0.02    -0.14  -0.36   0.01
  14   1    -0.00   0.00   0.00     0.14  -0.20  -0.32     0.01  -0.01  -0.02
  15   1     0.00  -0.01   0.01    -0.01   0.01   0.00    -0.00   0.01  -0.01
  16   1    -0.11   0.19  -0.36     0.02  -0.00   0.00    -0.06   0.12  -0.23
  17   1    -0.25  -0.00   0.00    -0.40   0.01  -0.02    -0.41   0.01  -0.01
  18   1    -0.11   0.18  -0.34     0.02  -0.01   0.01     0.06  -0.12   0.23
                     43                     44                     45
                        a                      a                      a 
 Frequencies --  2976.2229              2976.2544              2982.2449
 Red. masses --    99.0000                99.0000                99.0000
 Frc consts  --    99.0000                99.0000                99.0000
 IR Inten    --    99.0000                99.0000                99.0000
 Raman Activ --     0.0000                 0.0000                 0.0000
 Depolar     --     0.0000                 0.0000                 0.0000
 Atom AN      X      Y      Z        X      Y      Z        X      Y      Z
   1   6    -0.06  -0.02  -0.09    -0.03  -0.01  -0.04    -0.06  -0.08  -0.05
   2   6    -0.01   0.01  -0.00    -0.07   0.10  -0.04    -0.00  -0.00  -0.00
   3   6    -0.04  -0.04   0.08     0.03   0.04  -0.06    -0.09  -0.03   0.05
   4   6     0.06   0.02   0.09     0.03   0.01   0.04    -0.06  -0.08  -0.05
   5   6     0.01  -0.01   0.00     0.07  -0.10   0.04    -0.00  -0.00   0.00
   6   6     0.04   0.04  -0.08    -0.03  -0.03   0.06    -0.09  -0.03   0.05
   7   1     0.26  -0.01   0.02    -0.18   0.01  -0.02     0.40  -0.01   0.03
   8   1     0.01  -0.02   0.04     0.14  -0.20   0.40    -0.00   0.00  -0.01
   9   1     0.01  -0.01  -0.03     0.10  -0.15  -0.26    -0.00   0.00   0.01
  10   1     0.13  -0.19   0.36     0.06  -0.09   0.16     0.07  -0.12   0.21
  11   1     0.09   0.28  -0.03     0.04   0.12  -0.01     0.14   0.39  -0.03
  12   1    -0.12   0.19  -0.35    -0.06   0.09  -0.16     0.07  -0.12   0.21
  13   1    -0.09  -0.27   0.03    -0.04  -0.13   0.01     0.14   0.40  -0.03
  14   1    -0.01   0.02   0.03    -0.10   0.15   0.26    -0.00  -0.00  -0.00
  15   1    -0.01   0.02  -0.04    -0.14   0.20  -0.39    -0.00  -0.00   0.00
  16   1     0.12  -0.17   0.32    -0.09   0.12  -0.23    -0.09   0.11  -0.22
  17   1    -0.25   0.01  -0.02     0.19  -0.01   0.02     0.42  -0.02   0.03
  18   1    -0.12   0.17  -0.32     0.09  -0.12   0.23    -0.08   0.11  -0.21
                     46                     47                     48
                        a                      a                      a 
 Frequencies --  2982.3532              2985.5737              2984.5141
 Red. masses --    99.0000                99.0000                99.0000
 Frc consts  --    99.0000                99.0000                99.0000
 IR Inten    --    99.0000                99.0000                99.0000
 Raman Activ --     0.0000                 0.0000                 0.0000
 Depolar     --     0.0000                 0.0000                 0.0000
 Atom AN      X      Y      Z        X      Y      Z        X      Y      Z
   1   6     0.03   0.05   0.03    -0.03   0.05  -0.09    -0.04  -0.06  -0.04
   2   6    -0.07   0.10   0.04    -0.03   0.05  -0.09     0.04  -0.06  -0.03
   3   6    -0.06  -0.01   0.03    -0.03   0.05  -0.09     0.08   0.02  -0.04
   4   6     0.03   0.04   0.03    -0.03   0.05  -0.09     0.05   0.07   0.04
   5   6    -0.06   0.09   0.04    -0.04   0.05  -0.09    -0.05   0.07   0.04
   6   6    -0.05  -0.01   0.03    -0.03   0.05  -0.09    -0.08  -0.02   0.04
   7   1     0.26  -0.01   0.02     0.01   0.01  -0.01    -0.34   0.01  -0.02
   8   1     0.08  -0.12   0.25     0.12  -0.18   0.33    -0.05   0.07  -0.16
   9   1     0.16  -0.24  -0.40    -0.00   0.01  -0.01    -0.11   0.16   0.27
  10   1    -0.05   0.08  -0.13     0.12  -0.17   0.33     0.05  -0.09   0.15
  11   1    -0.08  -0.24   0.02    -0.01  -0.00  -0.01     0.11   0.31  -0.02
  12   1    -0.04   0.07  -0.12     0.12  -0.17   0.33    -0.06   0.10  -0.17
  13   1    -0.07  -0.21   0.01    -0.01  -0.00  -0.01    -0.12  -0.34   0.02
  14   1     0.16  -0.23  -0.38    -0.00   0.01  -0.02     0.12  -0.18  -0.30
  15   1     0.08  -0.11   0.24     0.12  -0.18   0.33     0.06  -0.08   0.18
  16   1    -0.05   0.06  -0.12     0.11  -0.17   0.33    -0.07   0.08  -0.16
  17   1     0.23  -0.01   0.02     0.01   0.01  -0.01     0.35  -0.01   0.02
  18   1    -0.06   0.07  -0.14     0.11  -0.17   0.33     0.07  -0.08   0.16
