 Entering Gaussian System
 *********************************************
 Gaussian 98:
 frequency output generated by the xtb code
 *********************************************
                         Standard orientation:
 --------------------------------------------------------------------
  Center     Atomic     Atomic              Coordinates (Angstroms)
  Number     Number      Type              X           Y           Z
 --------------------------------------------------------------------
    1          6             0       -3.650485    0.216291    0.017113
    2          1             0       -3.297433   -0.811122    0.017796
    3          1             0       -3.295118    0.718714   -0.878059
    4          1             0       -4.736825    0.206829    0.017718
    5          6             0       -3.142360    0.934892    1.256989
    6          1             0       -2.042229    0.947404    1.257086
    7          1             0       -3.497010    1.976367    1.256918
    8          8             0       -3.624191    0.253852    2.397167
    9          1             0       -3.309418    0.699004    3.189940
 --------------------------------------------------------------------
     1 basis functions        1 primitive gaussians
     1 alpha electrons        1 beta electrons
 
 Harmonic frequencies (cm**-1), IR intensities (KM/Mole),
 Raman scattering activities (A**4/amu), Raman depolarization ratios,
 reduced masses (AMU), force constants (mDyne/A) and normal coordinates:
                      1                      2                      3
                        a                      a                      a 
 Frequencies --   202.4685               293.8487               394.2978
 Red. masses --    99.0000                99.0000                99.0000
 Frc consts  --    99.0000                99.0000                99.0000
 IR Inten    --    99.0000                99.0000                99.0000
 Raman Activ --     0.0000                 0.0000                 0.0000
 Depolar     --     0.0000                 0.0000                 0.0000
 Atom AN      X      Y      Z        X      Y      Z        X      Y      Z
   1   6    -0.01   0.01  -0.00     0.08  -0.06   0.00     0.05   0.07  -0.43
   2   1    -0.38  -0.13   0.32     0.01  -0.02   0.07     0.02   0.02  -0.29
   3   1     0.45  -0.32   0.00     0.09  -0.06   0.00     0.14   0.20   0.02
   4   1    -0.01   0.40  -0.32     0.02  -0.00  -0.07     0.02   0.03  -0.29
   5   6    -0.18   0.13  -0.00    -0.11   0.08  -0.00    -0.24  -0.33  -0.02
   6   1    -0.05   0.14  -0.03    -0.04   0.04   0.01    -0.07  -0.09  -0.03
   7   1    -0.15   0.00   0.03    -0.05   0.02  -0.01    -0.06  -0.09  -0.03
   8   8     0.22  -0.16   0.00    -0.18   0.13   0.00     0.11   0.16   0.54
   9   1    -0.07   0.05  -0.00     0.77  -0.55   0.00     0.13   0.18   0.02
                      4                      5                      6
                        a                      a                      a 
 Frequencies --   837.4393               930.3435              1040.6746
 Red. masses --    99.0000                99.0000                99.0000
 Frc consts  --    99.0000                99.0000                99.0000
 IR Inten    --    99.0000                99.0000                99.0000
 Raman Activ --     0.0000                 0.0000                 0.0000
 Depolar     --     0.0000                 0.0000                 0.0000
 Atom AN      X      Y      Z        X      Y      Z        X      Y      Z
   1   6     0.11  -0.08  -0.00     0.02   0.03  -0.45    -0.25  -0.36  -0.23
   2   1    -0.31  -0.13  -0.32    -0.04  -0.01   0.17    -0.04  -0.08  -0.29
   3   1    -0.13   0.09  -0.00    -0.24  -0.34  -0.41     0.08   0.11   0.10
   4   1     0.02   0.33   0.32     0.00  -0.04   0.17    -0.07  -0.07  -0.29
   5   6     0.20  -0.14  -0.00     0.20   0.28  -0.10     0.21   0.30   0.34
   6   1     0.04   0.44   0.21     0.04   0.05   0.11     0.06   0.08   0.01
   7   1    -0.40  -0.18  -0.21     0.04   0.06   0.11     0.06   0.08   0.01
   8   8    -0.08   0.05   0.00    -0.13  -0.19   0.42     0.08   0.11  -0.05
   9   1     0.02  -0.01   0.00    -0.03  -0.04   0.09    -0.23  -0.33   0.29
                      7                      8                      9
                        a                      a                      a 
 Frequencies --  1152.4103              1128.0507              1404.9274
 Red. masses --    99.0000                99.0000                99.0000
 Frc consts  --    99.0000                99.0000                99.0000
 IR Inten    --    99.0000                99.0000                99.0000
 Raman Activ --     0.0000                 0.0000                 0.0000
 Depolar     --     0.0000                 0.0000                 0.0000
 Atom AN      X      Y      Z        X      Y      Z        X      Y      Z
   1   6     0.25  -0.18   0.00     0.01   0.01  -0.27     0.11   0.16   0.38
   2   1    -0.19  -0.13  -0.24    -0.05  -0.02   0.09    -0.15  -0.04  -0.42
   3   1    -0.12   0.08   0.00    -0.13  -0.19  -0.22    -0.23  -0.33  -0.24
   4   1     0.05   0.22   0.24    -0.00  -0.05   0.09     0.01  -0.15  -0.42
   5   6    -0.40   0.28  -0.00    -0.17  -0.24   0.58    -0.04  -0.05  -0.21
   6   1    -0.09  -0.37   0.23    -0.03  -0.02   0.25    -0.01  -0.05   0.23
   7   1     0.32   0.21  -0.23    -0.01  -0.03   0.25    -0.04  -0.03   0.23
   8   8     0.14  -0.10   0.00     0.17   0.24  -0.35     0.05   0.08  -0.01
   9   1     0.01  -0.01   0.00     0.09   0.12  -0.14    -0.06  -0.09   0.09
                     10                     11                     12
                        a                      a                      a 
 Frequencies --  1493.9038              1265.2599              1240.1144
 Red. masses --    99.0000                99.0000                99.0000
 Frc consts  --    99.0000                99.0000                99.0000
 IR Inten    --    99.0000                99.0000                99.0000
 Raman Activ --     0.0000                 0.0000                 0.0000
 Depolar     --     0.0000                 0.0000                 0.0000
 Atom AN      X      Y      Z        X      Y      Z        X      Y      Z
   1   6     0.06   0.08  -0.02     0.23  -0.16   0.00    -0.15  -0.22   0.02
   2   1    -0.31  -0.10   0.03    -0.14  -0.11  -0.17     0.01  -0.04  -0.17
   3   1     0.05   0.08   0.06    -0.07   0.05  -0.00     0.07   0.10   0.13
   4   1     0.01  -0.33   0.03     0.05   0.17   0.17    -0.04  -0.01  -0.17
   5   6    -0.13  -0.18  -0.05    -0.07   0.05   0.00     0.19   0.27  -0.00
   6   1    -0.00   0.60  -0.00    -0.01  -0.00  -0.62     0.05   0.07   0.27
   7   1     0.56   0.20  -0.00    -0.00   0.01   0.62     0.05   0.07   0.27
   8   8    -0.02  -0.03   0.03    -0.09   0.06  -0.00    -0.15  -0.21   0.01
   9   1    -0.00  -0.00   0.00    -0.02   0.01   0.00     0.33   0.46  -0.43
                     13                     14                     15
                        a                      a                      a 
 Frequencies --  1474.4741              1365.7833              1495.8088
 Red. masses --    99.0000                99.0000                99.0000
 Frc consts  --    99.0000                99.0000                99.0000
 IR Inten    --    99.0000                99.0000                99.0000
 Raman Activ --     0.0000                 0.0000                 0.0000
 Depolar     --     0.0000                 0.0000                 0.0000
 Atom AN      X      Y      Z        X      Y      Z        X      Y      Z
   1   6     0.17  -0.12  -0.00    -0.08  -0.11  -0.08     0.10   0.14  -0.09
   2   1    -0.14  -0.06   0.44     0.12   0.03   0.18    -0.53  -0.17   0.11
   3   1    -0.59   0.42  -0.00     0.14   0.19   0.18     0.13   0.18   0.14
   4   1     0.01   0.16  -0.44    -0.01   0.12   0.18     0.01  -0.56   0.11
   5   6     0.04  -0.03   0.00    -0.07  -0.10  -0.41     0.09   0.13  -0.03
   6   1     0.01   0.02   0.02    -0.02   0.01   0.50     0.01  -0.32   0.04
   7   1    -0.01  -0.02  -0.02     0.01  -0.01   0.50    -0.31  -0.10   0.04
   8   8    -0.00   0.00  -0.00     0.11   0.15  -0.01     0.01   0.01  -0.01
   9   1     0.00  -0.00  -0.00    -0.13  -0.18   0.18     0.00   0.00  -0.00
                     16                     17                     18
                        a                      a                      a 
 Frequencies --  2852.7895              3055.1106              2885.9924
 Red. masses --    99.0000                99.0000                99.0000
 Frc consts  --    99.0000                99.0000                99.0000
 IR Inten    --    99.0000                99.0000                99.0000
 Raman Activ --     0.0000                 0.0000                 0.0000
 Depolar     --     0.0000                 0.0000                 0.0000
 Atom AN      X      Y      Z        X      Y      Z        X      Y      Z
   1   6    -0.00   0.00  -0.00    -0.14  -0.19   0.05    -0.00  -0.00   0.01
   2   1     0.01  -0.03  -0.00    -0.25   0.62   0.00    -0.01   0.02   0.00
   3   1    -0.00   0.00   0.00     0.06   0.08  -0.18     0.01   0.01  -0.02
   4   1     0.03   0.00   0.00     0.67  -0.02   0.00     0.02  -0.00   0.00
   5   6     0.24  -0.17   0.00    -0.01  -0.01  -0.00     0.11   0.16   0.01
   6   1    -0.67  -0.03  -0.01     0.02  -0.00  -0.00    -0.69   0.04   0.00
   7   1    -0.20   0.64   0.01    -0.01   0.02  -0.00     0.26  -0.64   0.00
   8   8     0.01  -0.00   0.00     0.00   0.00   0.00     0.01   0.01  -0.02
   9   1    -0.00   0.00   0.00    -0.00  -0.00  -0.01     0.00   0.00  -0.00
                     19                     20                     21
                        a                      a                      a 
 Frequencies --  3046.6915              3051.1970              3568.3710
 Red. masses --    99.0000                99.0000                99.0000
 Frc consts  --    99.0000                99.0000                99.0000
 IR Inten    --    99.0000                99.0000                99.0000
 Raman Activ --     0.0000                 0.0000                 0.0000
 Depolar     --     0.0000                 0.0000                 0.0000
 Atom AN      X      Y      Z        X      Y      Z        X      Y      Z
   1   6     0.05   0.08  -0.20     0.24  -0.17  -0.00     0.00   0.00  -0.00
   2   1    -0.04   0.16  -0.03    -0.20   0.65  -0.01    -0.00   0.01   0.00
   3   1    -0.31  -0.45   0.77     0.03  -0.02   0.00    -0.00  -0.00  -0.00
   4   1     0.17   0.01  -0.03    -0.67  -0.02   0.01     0.01   0.00   0.00
   5   6     0.00   0.00  -0.01     0.02  -0.01  -0.00    -0.00  -0.00  -0.00
   6   1    -0.01  -0.00   0.00    -0.03   0.00   0.00     0.00   0.00   0.00
   7   1     0.00  -0.01   0.00    -0.01   0.03  -0.00     0.00   0.00   0.00
   8   8    -0.00  -0.00   0.00    -0.00   0.00   0.00    -0.08  -0.11  -0.20
   9   1    -0.00  -0.00  -0.00     0.00  -0.00  -0.00     0.32   0.45   0.80
