 Entering Gaussian System
 *********************************************
 Gaussian 98:
 frequency output generated by the xtb code
 *********************************************
                         Standard orientation:
 --------------------------------------------------------------------
  Center     Atomic     Atomic              Coordinates (Angstroms)
  Number     Number      Type              X           Y           Z
 --------------------------------------------------------------------
    1          8             0        0.256832   -0.524717    2.106725
    2          6             0       -0.152985    0.821858    2.137364
    3          1             0       -1.245035    0.792352    2.121632
    4          1             0        0.189844    1.348021    1.233259
    5          6             0        0.336761    1.564489    3.381015
    6          1             0        1.431152    1.559584    3.393934
    7          1             0       -0.009459    1.030649    4.268585
    8          1             0        1.218481   -0.556358    2.164018
    9          6             0       -0.164149    3.005575    3.416733
   10          1             0       -1.255958    3.006655    3.402327
   11          1             0        0.178794    3.528350    2.520781
   12          6             0        0.328427    3.743917    4.655522
   13          1             0       -0.038612    4.767381    4.660979
   14          1             0       -0.021457    3.248646    5.558384
   15          1             0        1.415726    3.769316    4.678642
 --------------------------------------------------------------------
     1 basis functions        1 primitive gaussians
     1 alpha electrons        1 beta electrons
 
 Harmonic frequencies (cm**-1), IR intensities (KM/Mole),
 Raman scattering activities (A**4/amu), Raman depolarization ratios,
 reduced masses (AMU), force constants (mDyne/A) and normal coordinates:
                      1                      2                      3
                        a                      a                      a 
 Frequencies --   104.6198               100.2415               234.3671
 Red. masses --    99.0000                99.0000                99.0000
 Frc consts  --    99.0000                99.0000                99.0000
 IR Inten    --    99.0000                99.0000                99.0000
 Raman Activ --     0.0000                 0.0000                 0.0000
 Depolar     --     0.0000                 0.0000                 0.0000
 Atom AN      X      Y      Z        X      Y      Z        X      Y      Z
   1   8     0.22   0.05  -0.11    -0.33  -0.10   0.23     0.03   0.00  -0.02
   2   6    -0.37  -0.14   0.23     0.06   0.02  -0.04    -0.08  -0.03   0.05
   3   1    -0.11  -0.17   0.24     0.01   0.08   0.06    -0.02  -0.03   0.02
   4   1    -0.32   0.02   0.02    -0.01  -0.08  -0.07    -0.03   0.01   0.02
   5   6     0.00   0.00   0.00     0.49   0.18  -0.30    -0.11  -0.04   0.07
   6   1     0.00  -0.06  -0.06     0.14   0.13  -0.23    -0.03  -0.09   0.08
   7   1     0.02   0.07   0.05     0.29   0.03  -0.04    -0.12   0.04   0.01
   8   1     0.07   0.13  -0.20    -0.08  -0.09  -0.01     0.01   0.02  -0.02
   9   6     0.31   0.11  -0.19     0.10   0.04  -0.07     0.22   0.08  -0.13
  10   1     0.09   0.10  -0.21     0.03  -0.08  -0.06     0.06   0.08  -0.13
  11   1     0.25   0.02  -0.00     0.02   0.10   0.03     0.16   0.01  -0.01
  12   6    -0.14  -0.05   0.08    -0.29  -0.11   0.18    -0.04  -0.01   0.02
  13   1     0.08   0.03  -0.05    -0.16  -0.06   0.10    -0.45  -0.16   0.28
  14   1    -0.26   0.04  -0.03    -0.09  -0.12   0.00     0.37  -0.33  -0.03
  15   1    -0.04  -0.14   0.22    -0.09   0.05   0.11    -0.02   0.46  -0.19
                      4                      5                      6
                        a                      a                      a 
 Frequencies --   348.2471               187.4691               394.0034
 Red. masses --    99.0000                99.0000                99.0000
 Frc consts  --    99.0000                99.0000                99.0000
 IR Inten    --    99.0000                99.0000                99.0000
 Raman Activ --     0.0000                 0.0000                 0.0000
 Depolar     --     0.0000                 0.0000                 0.0000
 Atom AN      X      Y      Z        X      Y      Z        X      Y      Z
   1   8     0.04   0.12  -0.20    -0.25  -0.02  -0.40     0.07  -0.33  -0.09
   2   6    -0.16   0.03   0.04     0.11   0.06   0.20    -0.08  -0.26  -0.28
   3   1    -0.05  -0.02   0.05     0.03   0.08   0.08    -0.02  -0.11  -0.10
   4   1    -0.09   0.04   0.01     0.03   0.08   0.09    -0.02  -0.11  -0.10
   5   6     0.09  -0.08  -0.03     0.27  -0.20   0.31    -0.12  -0.04  -0.23
   6   1     0.03  -0.02  -0.09     0.08  -0.05   0.09    -0.03  -0.05  -0.09
   7   1     0.09  -0.02   0.02     0.07  -0.06   0.09    -0.03  -0.05  -0.08
   8   1    -0.04   0.05   0.91    -0.06  -0.08  -0.19     0.01  -0.06   0.02
   9   6     0.08  -0.10   0.01     0.13  -0.23   0.08     0.14   0.14   0.31
  10   1     0.02  -0.04  -0.01     0.04  -0.12  -0.01     0.04   0.07   0.10
  11   1     0.02  -0.03  -0.00     0.03  -0.12  -0.01     0.03   0.07   0.10
  12   6    -0.03   0.01  -0.03    -0.21   0.34  -0.13     0.01   0.45   0.29
  13   1    -0.03  -0.01  -0.04    -0.14   0.07  -0.18    -0.06   0.11  -0.04
  14   1    -0.01   0.02  -0.00    -0.06   0.18   0.01    -0.00   0.20   0.12
  15   1    -0.01   0.03   0.01    -0.06   0.18   0.00     0.00   0.20   0.12
                      7                      8                      9
                        a                      a                      a 
 Frequencies --   440.5574               777.7857               833.5117
 Red. masses --    99.0000                99.0000                99.0000
 Frc consts  --    99.0000                99.0000                99.0000
 IR Inten    --    99.0000                99.0000                99.0000
 Raman Activ --     0.0000                 0.0000                 0.0000
 Depolar     --     0.0000                 0.0000                 0.0000
 Atom AN      X      Y      Z        X      Y      Z        X      Y      Z
   1   8     0.06   0.38   0.44    -0.02  -0.00   0.00     0.05  -0.01  -0.02
   2   6    -0.19   0.21  -0.27     0.05   0.02  -0.03    -0.17  -0.06   0.09
   3   1    -0.05   0.05  -0.08     0.01  -0.02   0.23    -0.04   0.06  -0.37
   4   1    -0.04   0.03  -0.09    -0.19  -0.04  -0.11     0.31   0.05   0.19
   5   6     0.01  -0.30  -0.13     0.14   0.05  -0.09    -0.12  -0.04   0.09
   6   1     0.00  -0.17  -0.06     0.03  -0.26   0.36    -0.02  -0.04  -0.29
   7   1    -0.02  -0.18  -0.10    -0.40   0.12  -0.13     0.21   0.11   0.19
   8   1     0.03   0.19  -0.12    -0.01  -0.03   0.04     0.02   0.10  -0.05
   9   6     0.19  -0.35   0.11     0.14   0.05  -0.09     0.18   0.06  -0.11
  10   1     0.05  -0.11   0.01     0.03  -0.25   0.34     0.04  -0.05   0.32
  11   1     0.05  -0.12   0.02    -0.39   0.12  -0.12    -0.27  -0.04  -0.17
  12   6    -0.05   0.04  -0.06     0.02   0.01  -0.01     0.07   0.03  -0.05
  13   1    -0.08  -0.01  -0.15    -0.05  -0.02   0.03    -0.10  -0.04   0.06
  14   1    -0.02   0.09   0.02    -0.14  -0.08  -0.10    -0.19  -0.16  -0.18
  15   1    -0.02   0.09   0.02    -0.00   0.03   0.19     0.01   0.09   0.29
                     10                     11                     12
                        a                      a                      a 
 Frequencies --  1503.8360               948.0900              1483.9669
 Red. masses --    99.0000                99.0000                99.0000
 Frc consts  --    99.0000                99.0000                99.0000
 IR Inten    --    99.0000                99.0000                99.0000
 Raman Activ --     0.0000                 0.0000                 0.0000
 Depolar     --     0.0000                 0.0000                 0.0000
 Atom AN      X      Y      Z        X      Y      Z        X      Y      Z
   1   8    -0.00  -0.00  -0.00     0.04  -0.05  -0.04    -0.01   0.02  -0.01
   2   6     0.00   0.00  -0.00    -0.19  -0.05   0.13    -0.16   0.08  -0.19
   3   1     0.00   0.00   0.00    -0.04   0.09  -0.25    -0.01  -0.32   0.58
   4   1    -0.00  -0.00  -0.00     0.23  -0.01   0.14     0.64  -0.10   0.18
   5   6     0.00   0.00   0.00     0.10   0.14  -0.10    -0.01   0.03  -0.01
   6   1    -0.00  -0.02  -0.01     0.02  -0.27   0.01    -0.00  -0.03   0.02
   7   1    -0.00   0.02   0.01    -0.14   0.34   0.09     0.03  -0.02  -0.01
   8   1     0.00   0.00   0.00     0.01   0.14  -0.02    -0.00   0.01  -0.00
   9   6    -0.04  -0.01   0.03     0.08  -0.03   0.01     0.03  -0.02   0.03
  10   1    -0.01  -0.00  -0.03     0.02  -0.28  -0.09     0.00   0.06  -0.10
  11   1     0.00   0.01   0.02    -0.03   0.31   0.17    -0.11   0.02  -0.03
  12   6    -0.18  -0.06   0.10    -0.13  -0.15   0.06    -0.01   0.00  -0.01
  13   1     0.58   0.21  -0.36     0.05  -0.01  -0.20    -0.00  -0.00  -0.01
  14   1     0.16  -0.42  -0.15     0.18   0.22   0.23     0.04  -0.00   0.01
  15   1    -0.02   0.46   0.09    -0.02  -0.06  -0.28    -0.00  -0.02   0.03
                     13                     14                     15
                        a                      a                      a 
 Frequencies --  1506.1068              1211.7726              1493.7614
 Red. masses --    99.0000                99.0000                99.0000
 Frc consts  --    99.0000                99.0000                99.0000
 IR Inten    --    99.0000                99.0000                99.0000
 Raman Activ --     0.0000                 0.0000                 0.0000
 Depolar     --     0.0000                 0.0000                 0.0000
 Atom AN      X      Y      Z        X      Y      Z        X      Y      Z
   1   8    -0.00  -0.00  -0.00     0.03   0.04   0.01     0.00  -0.01  -0.00
   2   6     0.00  -0.01  -0.00    -0.16   0.02   0.07    -0.01   0.03   0.01
   3   1     0.00   0.00   0.01    -0.03  -0.22  -0.24    -0.00  -0.02  -0.01
   4   1     0.01   0.00   0.00     0.06   0.10   0.11     0.00  -0.02  -0.01
   5   6     0.02   0.01   0.03     0.29   0.09  -0.10    -0.16   0.12  -0.20
   6   1     0.00   0.04  -0.09     0.06  -0.23   0.09    -0.02  -0.32   0.56
   7   1    -0.09   0.01  -0.03    -0.15   0.10  -0.06     0.62  -0.10   0.17
   8   1    -0.00   0.00  -0.00    -0.00  -0.22  -0.01    -0.00  -0.00   0.00
   9   6     0.07  -0.09   0.05    -0.37  -0.08   0.18    -0.04  -0.01  -0.07
  10   1     0.01   0.12  -0.13    -0.09   0.04  -0.26    -0.00  -0.05   0.14
  11   1    -0.17   0.05  -0.02     0.19  -0.00   0.16     0.14  -0.00   0.05
  12   6     0.10  -0.17   0.07     0.26   0.06  -0.13     0.02  -0.02   0.02
  13   1     0.16   0.04   0.27    -0.12  -0.05   0.03     0.04   0.01   0.05
  14   1    -0.57   0.21  -0.10    -0.17  -0.11  -0.18    -0.12   0.04  -0.02
  15   1     0.01   0.42  -0.45     0.05   0.11   0.28     0.00   0.09  -0.09
                     16                     17                     18
                        a                      a                      a 
 Frequencies --   943.0184              1498.5079              1025.7518
 Red. masses --    99.0000                99.0000                99.0000
 Frc consts  --    99.0000                99.0000                99.0000
 IR Inten    --    99.0000                99.0000                99.0000
 Raman Activ --     0.0000                 0.0000                 0.0000
 Depolar     --     0.0000                 0.0000                 0.0000
 Atom AN      X      Y      Z        X      Y      Z        X      Y      Z
   1   8    -0.02   0.03  -0.03    -0.00   0.01  -0.00     0.11  -0.40  -0.01
   2   6     0.15   0.03   0.15    -0.03   0.01  -0.04    -0.32   0.21  -0.33
   3   1     0.04  -0.05   0.09    -0.00  -0.06   0.12    -0.08   0.17  -0.06
   4   1    -0.04   0.02   0.01     0.12  -0.01   0.04    -0.03  -0.09  -0.14
   5   6    -0.26   0.28  -0.16     0.03  -0.04   0.03     0.18   0.27   0.36
   6   1    -0.07   0.21  -0.02     0.00   0.10  -0.14     0.04   0.15   0.18
   7   1    -0.02   0.08  -0.02    -0.17   0.04  -0.04     0.01  -0.01   0.03
   8   1    -0.01  -0.12  -0.01    -0.00   0.00  -0.00     0.03   0.21   0.02
   9   6     0.14  -0.17   0.14    -0.15   0.11  -0.18     0.07   0.04   0.22
  10   1     0.03   0.15   0.14    -0.01  -0.32   0.54     0.02   0.06   0.05
  11   1     0.04   0.02   0.08     0.60  -0.10   0.16     0.07  -0.07   0.03
  12   6     0.10  -0.32  -0.11     0.03  -0.02   0.04    -0.05  -0.13  -0.23
  13   1    -0.26  -0.18  -0.47     0.03   0.01   0.03    -0.05  -0.05  -0.07
  14   1    -0.07   0.16   0.06    -0.15   0.02  -0.05    -0.05  -0.06  -0.09
  15   1     0.01   0.24   0.16     0.00   0.08  -0.14    -0.02  -0.02  -0.01
                     19                     20                     21
                        a                      a                      a 
 Frequencies --  1082.8572              1095.3482              1253.3637
 Red. masses --    99.0000                99.0000                99.0000
 Frc consts  --    99.0000                99.0000                99.0000
 IR Inten    --    99.0000                99.0000                99.0000
 Raman Activ --     0.0000                 0.0000                 0.0000
 Depolar     --     0.0000                 0.0000                 0.0000
 Atom AN      X      Y      Z        X      Y      Z        X      Y      Z
   1   8     0.03  -0.13  -0.05    -0.15   0.35   0.01     0.03   0.10  -0.04
   2   6    -0.09   0.01   0.19     0.02  -0.48  -0.35    -0.20  -0.00   0.19
   3   1    -0.03   0.42   0.07    -0.00  -0.21  -0.10    -0.04  -0.24  -0.30
   4   1     0.15  -0.16   0.02    -0.05  -0.09  -0.10     0.10  -0.16   0.01
   5   6     0.09  -0.09  -0.17     0.10   0.18   0.30     0.15   0.18   0.07
   6   1     0.02   0.15   0.18     0.03   0.19   0.16     0.04   0.01   0.10
   7   1    -0.09  -0.07  -0.12     0.04   0.21   0.18    -0.06  -0.47  -0.33
   8   1     0.02   0.41   0.00    -0.03   0.11   0.01    -0.00  -0.23  -0.01
   9   6    -0.25  -0.12  -0.29    -0.05  -0.15  -0.18     0.07   0.18  -0.11
  10   1    -0.06   0.12  -0.08    -0.01  -0.08  -0.06     0.02   0.01   0.08
  11   1     0.01  -0.08  -0.08    -0.01  -0.08  -0.07    -0.07  -0.23  -0.23
  12   6     0.21   0.05   0.26     0.11  -0.00   0.17    -0.08  -0.12   0.13
  13   1    -0.06  -0.02  -0.06    -0.02  -0.02  -0.05     0.02  -0.01  -0.13
  14   1    -0.01   0.10   0.09     0.02   0.08   0.09     0.07   0.10   0.13
  15   1     0.05   0.16   0.20     0.03   0.08   0.08    -0.02   0.01  -0.12
                     22                     23                     24
                        a                      a                      a 
 Frequencies --  1134.0682              1110.3884              1274.5702
 Red. masses --    99.0000                99.0000                99.0000
 Frc consts  --    99.0000                99.0000                99.0000
 IR Inten    --    99.0000                99.0000                99.0000
 Raman Activ --     0.0000                 0.0000                 0.0000
 Depolar     --     0.0000                 0.0000                 0.0000
 Atom AN      X      Y      Z        X      Y      Z        X      Y      Z
   1   8     0.03  -0.07   0.07     0.11  -0.28   0.04    -0.04  -0.02  -0.02
   2   6    -0.03   0.15  -0.20    -0.07   0.43  -0.09     0.04  -0.01   0.04
   3   1    -0.00  -0.08   0.03    -0.01  -0.12  -0.01     0.01  -0.05  -0.01
   4   1    -0.10   0.18   0.01    -0.12   0.18  -0.01    -0.01  -0.04  -0.01
   5   6     0.16  -0.40   0.22    -0.14   0.19   0.07    -0.18   0.02   0.14
   6   1     0.04  -0.12  -0.04    -0.04   0.03  -0.10    -0.04   0.20  -0.01
   7   1     0.11  -0.04   0.12     0.02   0.14   0.09     0.08  -0.39  -0.15
   8   1     0.00  -0.12   0.01     0.02  -0.29  -0.00    -0.01   0.12   0.01
   9   6    -0.19   0.36  -0.24     0.00  -0.32  -0.30     0.05   0.09  -0.03
  10   1    -0.05   0.18   0.06     0.00  -0.26  -0.13     0.01  -0.56  -0.28
  11   1    -0.10   0.29   0.04    -0.05  -0.15  -0.14    -0.04   0.41   0.20
  12   6     0.08  -0.19   0.09     0.10   0.12   0.29     0.16   0.02  -0.07
  13   1    -0.11  -0.09  -0.26     0.04   0.03   0.06    -0.05  -0.03  -0.02
  14   1     0.01   0.18   0.14     0.06   0.07   0.11    -0.08  -0.05  -0.10
  15   1     0.01   0.16   0.05     0.03   0.04   0.06     0.04   0.06   0.13
                     25                     26                     27
                        a                      a                      a 
 Frequencies --  1280.8609              1351.6800              1321.4373
 Red. masses --    99.0000                99.0000                99.0000
 Frc consts  --    99.0000                99.0000                99.0000
 IR Inten    --    99.0000                99.0000                99.0000
 Raman Activ --     0.0000                 0.0000                 0.0000
 Depolar     --     0.0000                 0.0000                 0.0000
 Atom AN      X      Y      Z        X      Y      Z        X      Y      Z
   1   8     0.01   0.05  -0.06     0.13   0.09   0.04     0.17   0.19  -0.04
   2   6     0.14   0.04   0.02    -0.15  -0.28  -0.15    -0.22   0.05   0.05
   3   1     0.03   0.15   0.14    -0.06   0.50   0.18    -0.07   0.25  -0.01
   4   1    -0.03  -0.45  -0.28     0.03   0.29   0.19     0.08  -0.48  -0.21
   5   6    -0.09   0.14   0.17    -0.03  -0.01  -0.07    -0.01  -0.13   0.06
   6   1    -0.02  -0.52  -0.36    -0.01   0.07   0.08    -0.01   0.18   0.06
   7   1     0.06   0.01   0.06     0.02   0.00  -0.00     0.02   0.08   0.09
   8   1     0.00   0.02   0.00     0.02  -0.37  -0.01     0.02  -0.52  -0.02
   9   6    -0.14   0.15   0.07     0.01   0.24   0.14     0.03  -0.17  -0.09
  10   1    -0.03  -0.14  -0.15     0.00  -0.27  -0.17     0.01   0.10   0.08
  11   1     0.03  -0.21  -0.10    -0.02  -0.24  -0.15    -0.01   0.29   0.17
  12   6     0.09  -0.07   0.03     0.05  -0.06   0.04    -0.02   0.06  -0.05
  13   1    -0.08  -0.05  -0.09    -0.05  -0.04  -0.11     0.04   0.03   0.09
  14   1    -0.05   0.03   0.00    -0.05  -0.01  -0.01     0.02  -0.01  -0.02
  15   1     0.02   0.06   0.04     0.01   0.02  -0.05    -0.00  -0.01   0.04
                     28                     29                     30
                        a                      a                      a 
 Frequencies --  1370.3915              1416.3452              2861.6997
 Red. masses --    99.0000                99.0000                99.0000
 Frc consts  --    99.0000                99.0000                99.0000
 IR Inten    --    99.0000                99.0000                99.0000
 Raman Activ --     0.0000                 0.0000                 0.0000
 Depolar     --     0.0000                 0.0000                 0.0000
 Atom AN      X      Y      Z        X      Y      Z        X      Y      Z
   1   8    -0.03  -0.01  -0.02    -0.00   0.00  -0.00     0.00  -0.02   0.00
   2   6     0.01   0.23   0.12    -0.00   0.02   0.00    -0.11  -0.11   0.21
   3   1     0.01  -0.25  -0.12     0.00  -0.03  -0.01     0.06  -0.01   0.04
   4   1     0.01  -0.25  -0.14     0.00  -0.03  -0.02     0.31   0.45  -0.79
   5   6    -0.01  -0.37  -0.20     0.01  -0.00   0.02     0.01   0.00  -0.00
   6   1    -0.00   0.32   0.19     0.00   0.00   0.01    -0.02   0.00  -0.00
   7   1     0.01   0.31   0.19     0.01   0.00   0.01    -0.01  -0.02   0.05
   8   1    -0.00   0.05  -0.01    -0.00   0.00   0.00     0.00   0.00  -0.00
   9   6     0.02   0.29   0.20     0.00  -0.08  -0.04     0.00   0.00  -0.01
  10   1     0.01  -0.25  -0.17    -0.00   0.09   0.00     0.01  -0.00  -0.00
  11   1    -0.03  -0.25  -0.15    -0.05   0.08   0.03    -0.01  -0.01   0.02
  12   6     0.03  -0.06   0.01     0.12   0.23   0.34     0.00   0.00  -0.00
  13   1    -0.03  -0.03  -0.07    -0.24  -0.06  -0.44     0.00  -0.00  -0.00
  14   1    -0.05   0.01  -0.01    -0.21  -0.38  -0.28    -0.00  -0.00   0.00
  15   1     0.00   0.02  -0.04     0.03  -0.29  -0.42    -0.00  -0.00  -0.00
                     31                     32                     33
                        a                      a                      a 
 Frequencies --  2948.2330              2969.3128              2980.0415
 Red. masses --    99.0000                99.0000                99.0000
 Frc consts  --    99.0000                99.0000                99.0000
 IR Inten    --    99.0000                99.0000                99.0000
 Raman Activ --     0.0000                 0.0000                 0.0000
 Depolar     --     0.0000                 0.0000                 0.0000
 Atom AN      X      Y      Z        X      Y      Z        X      Y      Z
   1   8    -0.00   0.00  -0.00     0.00  -0.00   0.00     0.00  -0.01  -0.00
   2   6    -0.03   0.00  -0.01     0.03   0.00   0.00     0.21   0.00   0.01
   3   1     0.16   0.01   0.00    -0.12  -0.00   0.00    -0.81  -0.03   0.00
   4   1    -0.02  -0.02   0.03     0.01   0.01  -0.02     0.05   0.03  -0.04
   5   6     0.25   0.03  -0.04    -0.05   0.02  -0.04     0.03  -0.02   0.03
   6   1    -0.90  -0.00  -0.01     0.23   0.01  -0.01    -0.14  -0.00   0.01
   7   1    -0.03  -0.09   0.16    -0.08  -0.11   0.18     0.05   0.07  -0.12
   8   1    -0.00   0.00   0.00     0.00  -0.00  -0.00     0.01   0.00   0.00
   9   6    -0.05  -0.02   0.03    -0.18  -0.10   0.17    -0.08   0.03  -0.05
  10   1     0.17  -0.00   0.01     0.41  -0.01   0.03     0.40   0.01  -0.01
  11   1     0.04   0.07  -0.12     0.25   0.38  -0.65    -0.10  -0.12   0.21
  12   6    -0.00   0.00  -0.00     0.02   0.01  -0.01     0.01  -0.01   0.00
  13   1     0.00  -0.01  -0.00     0.01  -0.00  -0.00    -0.01   0.02  -0.00
  14   1    -0.00  -0.01   0.01    -0.02  -0.03   0.07     0.00   0.00  -0.01
  15   1     0.01  -0.00  -0.00    -0.07   0.00  -0.00    -0.03  -0.00  -0.00
                     34                     35                     36
                        a                      a                      a 
 Frequencies --  2988.4507              3032.3194              2985.6350
 Red. masses --    99.0000                99.0000                99.0000
 Frc consts  --    99.0000                99.0000                99.0000
 IR Inten    --    99.0000                99.0000                99.0000
 Raman Activ --     0.0000                 0.0000                 0.0000
 Depolar     --     0.0000                 0.0000                 0.0000
 Atom AN      X      Y      Z        X      Y      Z        X      Y      Z
   1   8     0.00  -0.00  -0.00     0.00   0.00   0.00    -0.00   0.00  -0.00
   2   6     0.06  -0.00   0.02    -0.00  -0.00   0.00    -0.11  -0.01   0.01
   3   1    -0.25  -0.01   0.00     0.01   0.00   0.00     0.41   0.01   0.00
   4   1     0.03   0.03  -0.05    -0.00   0.00  -0.00    -0.01  -0.00  -0.00
   5   6     0.00  -0.08   0.13    -0.01  -0.00   0.00    -0.07  -0.09   0.15
   6   1    -0.20  -0.01   0.02     0.03  -0.00  -0.00     0.01  -0.01   0.02
   7   1     0.21   0.29  -0.48     0.00   0.00  -0.01     0.23   0.33  -0.55
   8   1     0.00   0.00   0.00    -0.00  -0.00  -0.00    -0.01  -0.00   0.00
   9   6     0.10  -0.06   0.10    -0.04  -0.01   0.01    -0.14   0.00  -0.01
  10   1    -0.52  -0.01   0.01     0.12  -0.00  -0.00     0.54   0.00  -0.00
  11   1     0.17   0.21  -0.36     0.01   0.02  -0.03    -0.04  -0.02   0.04
  12   6    -0.02   0.03  -0.01    -0.27  -0.01   0.08     0.02   0.00  -0.01
  13   1     0.02  -0.06  -0.00     0.01  -0.14   0.01    -0.00   0.01  -0.00
  14   1    -0.03  -0.03   0.05     0.09   0.18  -0.30    -0.01  -0.02   0.03
  15   1     0.07   0.00  -0.00     0.87   0.01   0.02    -0.07  -0.00  -0.00
                     37                     38                     39
                        a                      a                      a 
 Frequencies --  3036.0997              3040.8565              3541.6006
 Red. masses --    99.0000                99.0000                99.0000
 Frc consts  --    99.0000                99.0000                99.0000
 IR Inten    --    99.0000                99.0000                99.0000
 Raman Activ --     0.0000                 0.0000                 0.0000
 Depolar     --     0.0000                 0.0000                 0.0000
 Atom AN      X      Y      Z        X      Y      Z        X      Y      Z
   1   8     0.00   0.00   0.00     0.00   0.00   0.00    -0.24   0.01  -0.01
   2   6    -0.00   0.00  -0.00    -0.00  -0.00  -0.00    -0.01   0.00  -0.00
   3   1     0.01   0.00  -0.00     0.00  -0.00  -0.00     0.01   0.01  -0.00
   4   1    -0.00  -0.00   0.01    -0.00  -0.00   0.00     0.00  -0.00   0.00
   5   6    -0.00   0.01  -0.01     0.00  -0.00   0.00     0.00  -0.00   0.00
   6   1     0.02   0.00  -0.00    -0.00  -0.00   0.00    -0.00   0.00   0.00
   7   1    -0.02  -0.03   0.04     0.00   0.00  -0.00    -0.00  -0.00  -0.00
   8   1    -0.00  -0.00  -0.00    -0.00  -0.00  -0.00     0.97  -0.04   0.06
   9   6    -0.00   0.02  -0.03    -0.00   0.00   0.01    -0.00  -0.00  -0.00
  10   1     0.04   0.00  -0.00     0.01   0.00   0.00     0.00  -0.00  -0.00
  11   1    -0.03  -0.05   0.08     0.00   0.00  -0.00    -0.00  -0.00   0.00
  12   6    -0.04   0.23  -0.16    -0.03   0.14   0.10     0.00   0.00   0.00
  13   1     0.19  -0.50  -0.02     0.28  -0.74   0.02     0.00  -0.00  -0.00
  14   1    -0.27  -0.33   0.62     0.15   0.24  -0.38     0.00   0.00  -0.00
  15   1     0.23   0.04  -0.02    -0.34   0.01   0.01    -0.00   0.00   0.00
