 
        ______________________________________
       |                                      |
       |           ==================         |
       |                 x T B                |
       |           ==================         |
       |               S. Grimme              |
       |        Universitaet Bonn, MCTC       |
       |         2015-18, Version 5.8.1       |
       |      Sun May  6 11:39:08 CEST 2018   |
       |______________________________________|
 
        This code comes without any warranty
        for non-commercial, academia use only.
        Preliminary GFN2 test version.
        Test license to: Dow Chemical Company
        Cite GFN-xTB work as:
        S. Grimme, C. Bannwarth, P. Shushkov
        JCTC, 13 (2017) 1989-2009
        for GFN2:
        C. Bannwarth, S. Ehlert, S. Grimme
        to be published.
        sTDA-xTB:
        S. Grimme  &  C. Bannwarth, JCP 145 (2016) 054103
        in the mass-spec context additionally:
        V. Asgeirsson, C.Bauer, S. Grimme, Chem. Sci. 8 (2017) 4879
 
        with help from
        P. Shushkov, G. Brandenburg, S. Dohm, J. Pisarek,
        F. März, M. Checinski, S. Ehrlich, S. Spicher, 
        P. Pracht, E. Caldeweyher, S. Ehlert, and C. Bannwarth.
 
        usage        :
        xtb <coord_file> [options]
        where <coord_file> is a valid file of TM)
        (*coord, Bohr) or xmol (*xyz, Angstroem)
        format.

        options:
        -chrg <int>   : molecular charge
        -uhf  <int>   : # of unpaired electrons(=2*S)
        -nox          : skip second, extended part in sTDA-xTB
        -pop          : do population analysis
                      : (default for -nox)
        -mowr <real>  : cut MO write above (def.3 Eh)
        -molden       : write formatted molden file
        -parx <file>  : read parameters for sTDA-xTB
                        calc (def:~/.param_stda2.xtb)
        -parv <file>  : read parameters for vTB part in
                        sTDA-xTB (def: ~/.param_stda1.xtb)
        -xtemp <real> : el. temp for xTB (def. 0 K)
        -etemp <real> : el. temp for GFN (def. 300 K)
        -fod          : calculate the FOD and write
                        molden.input file with
                        appropriate occupations
                        for plotting. Def. T=12500 K
 
        -gfn1         : use GFN-xTB
        -gfn2         : use GFN2-xTB
        -gfn2d3       : GFN2-xTB with D3 instead of D4
        -grad         : GFNn-xTB gradient
        -acc <real>   : GFNn-xTB accuracy (def. 1.0)
        -opt [level]  : optimize at GFNn-xTB
                      : level=crude,vloose,loose,
                      :       tight,vtight
        -hess         : compute Hessian at GFNn-xTB
        -ohess        : optimize and compute Hessian
        -omd          : optimize and do MD
        -siman        : conformational search
        -screen       : opt. loop over ensemble
        -gmd          : annealed MD for GMD procedure
        -modef        : vib mode following
        -gbsa [string1] [string2]
                        use GBSA implicit solvent
                        for solvent [string1] and
                        solvation state [string2]=
                        reference, bar1M (default=1M)
        additional GFN/opt/MD/siman options read from
        $XTBHOME/.xtbrc or $set in coordinate file
 
       spin and charge state information can be on:
       <.CHRG> (charge) and <.UHF> (=nalpha-nbeta)
       -uhf and -chrg override the file info.
       useful machine settings:
       setenv MKL_NUM_THREADS <NCORE_ON_YOUR_MACHINE>
       setenv OMP_STACKSIZE 500m
       limit stacksize unlimited
 
       total energies in Eh, gaps/HL energies in eV
       please read REVISION and HOWTO files carefully
          54  days left until this code expires
 =============================
  # OMP threads =           2
 =============================
 
 xtbhome directory:/home/ua25450/dftb/
 
 argument            1 :-hess
 
 
 !!!!!!!!!!!!!!!!!!!!!!!!!!!!!!!!!!!!!!!!!!
 ! reading options from coord file and    !
 ! overriding <.xxx> files and <.xtbrc>   !
 !!!!!!!!!!!!!!!!!!!!!!!!!!!!!!!!!!!!!!!!!!
 name of molecule           :
 comment line               :
 number of atoms            :    10
 number of electrons        :    21
 charge                     :  0
 spin                       : 0.5
 first test random number   :  0.3599
 
 
 -----------------------------------------
  G F N (Geometry, Frequency, Non-covalent)
        parametrization, gfnver=           3
     D4 dispersion model
 /home/ua25450/dftb/.param_gfn2.xtb
 -----------------------------------------
      method parameters     
 k(s)        :  1.8500
 k(p)        :  2.2300
 k(d)        :  2.2300
 k(f)        :  2.0000
 kEN (H0ij)  : -2.0000
 D3 a1       :  0.5200
 D3 a2       :  5.0000
 D3 s8       :  2.7000
 D3atm       :  5.0000
 alphaj      :  2.0000
 
     -------------------------
     ! NO SOLVENT MODEL USED !
     -------------------------
 
 doing EN charges ...
 sum q :  0.2220446D-15
 point charge moment (au)
     X       Y       Z   
  -0.1984  -0.0141   0.1760  total (Debye):    0.675
 
            Z     q(EN)     CN     RAES       Cart. coordinates
     1  C   4.0    0.00    3.86    3.41    -0.91408    -0.63313     0.04380
     2  H   1.0    0.02    0.94    1.42    -2.45233     1.18400    -0.05470
     3  H   1.0    0.04    1.00    1.43    -1.28128    -1.46232     1.91396
     4  O   6.0   -0.18    2.03    1.83     1.53157     0.26546    -0.23265
     5  H   1.0    0.11    1.02    1.43     1.96436     1.25347     1.23604
     6  H   1.0    0.00    0.10    1.40    -3.70964     2.70985    -0.20625
     7  C   4.0   -0.13    3.99    3.61    -1.58846    -2.36360    -2.11353
     8  H   1.0    0.04    0.99    1.43    -3.55946    -2.96705    -1.95567
     9  H   1.0    0.04    1.00    1.43    -1.33722    -1.38113    -3.91513
    10  H   1.0    0.04    0.99    1.43    -0.37505    -4.04158    -2.11084
 
  Z AO/shell   Hii/eV     exponent
  1     Wed Apr 25 08:07:45 CEST 2018   EN: 2.200 GM2: 0.406  GM3: 0.0800  RAES: 1.40
     1s    -10.707211    1.230000
  6     Wed Apr 25 08:07:45 CEST 2018   EN: 2.550 GM2: 0.538  GM3: 0.1500  RAES: 3.00
     2s    -13.970922    2.096432
     2p    -10.063292    1.800000
  8     Wed Apr 25 08:07:45 CEST 2018   EN: 3.440 GM2: 0.452  GM3:-0.0517  RAES: 1.80
     2s    -20.229985    2.439742
     2p    -15.503117    2.137023
 
Molecule has no symmetry elements
It seems to be the C1 point group
c1  symmetry found (for desy threshold:  0.10E+00) used in thermo
 no old-style atom pair restraing (fixing) potential
 
 molecular fragmentation (1/2 indicates fragments):
1111121111
# atoms in fragment 1/2:     9     1
 fragment masses (1/2) :       46.07        1.01
CMA distance (Bohr)    :   4.975
constraining FC (au)   :  0.0500
 
             =======================================
             |                                     |
             |        S C C  calculation           |
             |                                     |
             =======================================
 #proc     :            2
 Ncao      :           19
 Nao       :           19
 Nel       :           21
 T(el)     :   300.0
 intcut    :    25.0
 scfconv   :  0.100E-05
   qconv   :  0.100E-03
 intneglect:  0.100E-07
 broydamp  :      0.400
 Nshell    :           13
  q data taken from xtbrestart
  CAMM data taken from xtbrestart
 iter      E             dE          RMSdq      gap      omega  full diag
   1    -11.9117861 -0.119118E+02  0.171E-05    9.97       0.0  T
   2    -11.9117861 -0.888178E-14  0.103E-05    9.97    3081.5  T
   3    -11.9117861 -0.177636E-13  0.687E-07    9.97   46026.2  T
speedup  1.00
cpu  time for SCC    0.16 s
wall time for SCC    0.16 s

          eigenvalues
 #    :           1          2          3          4          5          6          7          8
 occ. :        2.000      2.000      2.000      2.000      2.000      2.000      2.000      2.000
 eps  :       -19.175    -17.322    -15.978    -15.833    -14.701    -14.110    -12.855    -12.774
 #    :           9         10         11         12         13         14         15         16
 occ. :        2.000      2.000      1.000      0.000      0.000      0.000      0.000      0.000
 eps  :       -12.582    -11.853     -8.292      1.673      3.317      3.893      4.569      4.976
 #    :          17         18         19
 occ. :        0.000      0.000      0.000
 eps  :         5.628      7.298      7.601
 

   #   Z            q   n(s)   n(p)   n(d)      C6AA      α(0)    relVol
   1   6 C      0.080  1.063  2.858  0.000    20.334     6.619     0.536
   2   1 H      0.086  0.914  0.000  0.000     1.907     2.162     0.428
   3   1 H      0.019  0.981  0.000  0.000     2.741     2.589     0.512
   4   8 O     -0.400  1.707  4.693  0.000    21.341     6.250     1.203
   5   1 H      0.294  0.706  0.000  0.000     0.677     1.292     0.256
   6   1 H     -0.132  1.132  0.000  0.000    16.496     7.425     1.469
   7   6 C     -0.108  1.038  3.069  0.000    22.800     6.837     0.553
   8   1 H      0.043  0.957  0.000  0.000     2.396     2.421     0.479
   9   1 H      0.060  0.940  0.000  0.000     2.185     2.312     0.457
  10   1 H      0.057  0.943  0.000  0.000     2.229     2.335     0.462

 Mol. C6AA /au*bohr^6 :        686.485391
 Mol. C8AA /au*bohr^6 :      12853.945987
 Mol. a(0) /au        :         40.241426

 
 Wiberg/Mayer (AO) data. WBOs > 0.1 written file <wbo>
 largest (>0.05) Wiberg bond orders for each atom
           total WBO             WBO to atom ...
     1  C   3.569    O    4 1.032    C    7 1.025    H    3 0.957    H    2 0.544
     2  H   0.993    C    1 0.544    H    6 0.435
     3  H   0.988    C    1 0.957
     4  O   1.992    C    1 1.032    H    5 0.898
     5  H   0.912    O    4 0.898
     6  H   0.480    H    2 0.435
     7  C   3.985    C    1 1.025    H    8 0.985    H    9 0.981    H   10 0.968
     8  H   0.997    C    7 0.985
     9  H   0.993    C    7 0.981
    10  H   0.976    C    7 0.968
 (R)spin-density population
 
 Mulliken population n(s)   n(p)   n(d)
     1 C   0.3643   0.039  0.326  0.000
     2 H  -0.0002  -0.000  0.000  0.000
     3 H   0.0118   0.012  0.000  0.000
     4 O   0.0865   0.000  0.086  0.000
     5 H   0.0010   0.001  0.000  0.000
     6 H   0.5022   0.502  0.000  0.000
     7 C   0.0091   0.001  0.008  0.000
     8 H   0.0012   0.001  0.000  0.000
     9 H   0.0036   0.004  0.000  0.000
    10 H   0.0206   0.021  0.000  0.000
 
molecular dipole:
                 x           y           z       tot (Debye)
 q only:        0.059      -0.257       0.307
   full:        0.585      -0.220       0.540       1.486
molecular quadrupole (traceless):
                xx          xy          yy          xz          yz          zz
 q only:       -1.523       2.954       0.107       1.528       1.523       1.416
  q+dip:       -2.410       2.483       0.558       1.913       1.169       1.852
   full:       -2.134       2.917       0.406       1.976       1.500       1.729
 SCC converged in            3  cycles
 
SCC energy    :     -11.9117861
rep           :       0.1172108
ES            :       0.0224880
AES           :       0.0042533
AXC           :       0.0028425
disp          :      -0.0037239
XB            :       0.0000000
fix           :       0.0000000
total E       :     -11.7945731
atomizationE  :       2.0286459     1272.99
(atE without considerung molecular charge,
 total energy contains solvation terms)
H-L gap (eV)  :          9.9650
 
             =======================================
             |                                     |
             |        S C C  calculation           |
             |                                     |
             =======================================
 #proc     :            2
 Ncao      :           19
 Nao       :           19
 Nel       :           21
 T(el)     :   300.0
 intcut    :    30.2
 scfconv   :  0.300E-06
   qconv   :  0.300E-04
 intneglect:  0.300E-08
 broydamp  :      0.400
 Nshell    :           13
  q data taken from xtbrestart
  CAMM data taken from xtbrestart
 iter      E             dE          RMSdq      gap      omega  full diag
   1    -11.9117861 -0.119118E+02  0.169E-05    9.97       0.0  T
   2    -11.9117861 -0.319744E-13  0.102E-05    9.97    3108.0  T
   3    -11.9117861  0.142109E-13  0.731E-07    9.97   43285.9  T
speedup  1.00
cpu  time for SCC    0.01 s
wall time for SCC    0.01 s

          eigenvalues
 #    :           1          2          3          4          5          6          7          8
 occ. :        2.000      2.000      2.000      2.000      2.000      2.000      2.000      2.000
 eps  :       -19.175    -17.322    -15.978    -15.833    -14.701    -14.110    -12.855    -12.774
 #    :           9         10         11         12         13         14         15         16
 occ. :        2.000      2.000      1.000      0.000      0.000      0.000      0.000      0.000
 eps  :       -12.582    -11.853     -8.292      1.673      3.317      3.893      4.569      4.976
 #    :          17         18         19
 occ. :        0.000      0.000      0.000
 eps  :         5.628      7.298      7.601
 

   #   Z            q   n(s)   n(p)   n(d)      C6AA      α(0)    relVol
   1   6 C      0.080  1.063  2.858  0.000    20.334     6.619     0.536
   2   1 H      0.086  0.914  0.000  0.000     1.907     2.162     0.428
   3   1 H      0.019  0.981  0.000  0.000     2.741     2.589     0.512
   4   8 O     -0.400  1.707  4.693  0.000    21.341     6.250     1.203
   5   1 H      0.294  0.706  0.000  0.000     0.677     1.292     0.256
   6   1 H     -0.132  1.132  0.000  0.000    16.496     7.425     1.469
   7   6 C     -0.108  1.038  3.069  0.000    22.800     6.837     0.553
   8   1 H      0.043  0.957  0.000  0.000     2.396     2.421     0.479
   9   1 H      0.060  0.940  0.000  0.000     2.185     2.312     0.457
  10   1 H      0.057  0.943  0.000  0.000     2.229     2.335     0.462

 Mol. C6AA /au*bohr^6 :        686.485369
 Mol. C8AA /au*bohr^6 :      12853.945714
 Mol. a(0) /au        :         40.241425

 
molecular dipole:
                 x           y           z       tot (Debye)
 q only:        0.059      -0.257       0.307
   full:        0.040      -0.220       0.540       1.486
molecular quadrupole (traceless):
                xx          xy          yy          xz          yz          zz
 q only:       -1.523       2.954       0.107       1.528       1.523       1.416
  q+dip:       -2.410       2.483       0.558       1.913       1.169       1.852
   full:       -2.134       2.917       0.406       1.976       1.500       1.729
 SCC converged in            3  cycles
speedup  1.00
cpu  time for grad    0.01 s
wall time for grad    0.01 s
 
SCC energy    :     -11.9117861
rep           :       0.1172108
ES            :       0.0224880
AES           :       0.0042533
AXC           :       0.0028425
disp          :      -0.0037239
XB            :       0.0000000
fix           :       0.0000000
grad norm     :       0.0236650
total E       :     -11.7945731
atomizationE  :       2.0286459     1272.99
(atE without considerung molecular charge,
 total energy contains solvation terms)
H-L gap (eV)  :          9.9650
 
             =======================================
             |                                     |
             |         Numerical Hessian           |
             |                                     |
             =======================================
step length          :   0.00500
SCC accuracy         :   0.30000
Hessian scale factor :   1.00000
frozen atoms in %    :   0.00000    0
RMS gradient         :   0.02367
 WARNING WARNING WARNING WARNING WARNING WARNING
   Hessian on incompletely optimized geometry!
 WARNING WARNING WARNING WARNING WARNING WARNING
estimated CPU  time      0.00 min
estimated wall time      0.00 min
 
 writing file <hessian>.
 
 projected vibrational frequencies (cm-1)
eig.   :       -0.00    -0.00    -0.00    -0.00     0.00     0.00
eig.   :       91.38   202.41   297.70   397.47   401.08   760.10
eig.   :      946.26   982.24  1044.19  1100.08  1173.68  1195.96
eig.   :     1244.33  1324.06  1347.60  1415.28  1476.59  1485.93
eig.   :     1562.10  2856.80  2939.12  2976.96  2979.55  3533.01
 reduced masses (amu)
   1:  8.61   2:  8.39   3:  7.83   4: 12.47   5: 12.13   6: 10.15   7:  2.01   8:  1.48
   9:  4.85  10:  6.57  11:  6.03  12:  2.82  13:  6.30  14:  3.18  15:  5.66  16:  3.96
  17:  7.62  18:  3.31  19:  4.38  20:  2.20  21:  3.73  22:  3.44  23:  1.55  24:  1.54
  25:  2.28  26:  1.73  27:  1.77  28:  1.76  29:  1.60  30:  1.87
 IR intensities (amu)
   1:  0.09   2:  0.24   3:  0.20   4:  0.25   5:  0.18   6:  0.18   7:  0.13   8:  0.10
   9:  0.28  10:  0.42  11:  0.46  12:  0.15  13:  0.50  14:  0.52  15:  0.39  16:  0.42
  17:  1.15  18:  0.58  19:  0.78  20:  0.19  21:  0.35  22:  0.22  23:  0.07  24:  0.05
  25:  0.66  26:  0.37  27:  0.14  28:  0.18  29:  0.14  30:  0.19
 output can be read by thermo (or use thermo option).
 writing <g98.out> molden fake output.
 recommended (thermochemical) frequency scaling factor: 1.0
                    ==================
                    thermo calculation
                    ==================
Nvib :   24 Nimag : 0  symmetry :   c1  rot number :  1  scale factor : 1.00 sthr :  50.
omega= 91.38     Gvib=    -1.082     Grot=    -0.877     Gused=    -1.066
omega=202.41     Gvib=    -0.629     Grot=    -0.642     Gused=    -0.630
omega=297.70     Gvib=    -0.426     Grot=    -0.528     Gused=    -0.426
 
   temp. (K)  partition function   enthalpy   heat capacity  entropy
                                   cal/mol     cal/K/mol   cal/K/mol   J/K/mol
 298.15  VIB   8.69                 1677.608     11.773      9.867
         ROT  0.214E+05              888.752      2.981     22.796
         INT  0.186E+06             2566.360     14.754     32.663
         TR   0.313E+27             1481.254      4.968     37.455
         TOT                        4047.6139    19.7223    70.1186   293.3751
                     Eh         kcal/mol          kJ/mol 
ZPVE            0.768514E-01     48.2250         201.773    
H(0)-H(T)+PV    0.645028E-02     4.04761         16.9352    
H(T)            0.833017E-01     52.2726         218.708    
T*S             0.333156E-01     20.9059         87.4698    
G(T)            0.499861E-01     31.3667         131.238    
    -11.74458705  <=== TOTAL FREE ENERGY in Eh incl. el.,ZPVE,RRHO,solv. parts
 
Eat (element increment corrected) /kcal :   860.102
         -41.777  <=== HOF(298)/kcal, to be compared to exptl. data
 
 normal mode %tage of torsion character
   1:  0.00   2:  0.00   3:  0.00   4:  0.00   5:  0.00   6:  0.00   7:  1.00   8:  0.87
   9:  0.76  10:  0.91  11:  0.85  12:  0.92  13:  0.11  14:  0.90  15:  0.89  16:  0.95
  17:  0.99  18:  1.00  19:  0.33  20:  0.84  21:  0.99  22:  0.90  23:  0.92  24:  0.97
  25:  0.13  26:  0.11  27:  0.03  28:  0.04  29:  0.02  30:  0.00
 recommended # of modes for mode following           4
 
speedup  0.96
cpu  time for all    0.48 s
wall time for all    0.50 s
