 Entering Gaussian System
 *********************************************
 Gaussian 98:
 frequency output generated by the xtb code
 *********************************************
                         Standard orientation:
 --------------------------------------------------------------------
  Center     Atomic     Atomic              Coordinates (Angstroms)
  Number     Number      Type              X           Y           Z
 --------------------------------------------------------------------
    1          6             0       -0.483714   -0.335037    0.023181
    2          1             0       -1.297714    0.626551   -0.028940
    3          1             0       -0.678023   -0.773821    1.012826
    4          8             0        0.810473    0.140470   -0.123115
    5          1             0        1.039502    0.663306    0.654081
    6          1             0       -1.963048    1.434003   -0.109137
    7          6             0       -0.840586   -1.250760   -1.118424
    8          1             0       -1.883599   -1.570086   -1.034888
    9          1             0       -0.707640   -0.730861   -2.071795
   10          1             0       -0.198484   -2.138711   -1.117005
 --------------------------------------------------------------------
     1 basis functions        1 primitive gaussians
     1 alpha electrons        1 beta electrons
 
 Harmonic frequencies (cm**-1), IR intensities (KM/Mole),
 Raman scattering activities (A**4/amu), Raman depolarization ratios,
 reduced masses (AMU), force constants (mDyne/A) and normal coordinates:
                      1                      2                      3
                        a                      a                      a 
 Frequencies --    91.3774               202.4052               297.6993
 Red. masses --     2.0051                 1.4841                 4.8466
 Frc consts  --     0.0000                 0.0000                 0.0000
 IR Inten    --     0.1331                 0.0965                 0.2798
 Raman Activ --     0.0000                 0.0000                 0.0000
 Depolar     --     0.0000                 0.0000                 0.0000
 Atom AN      X      Y      Z        X      Y      Z        X      Y      Z
   1   6    -0.11  -0.08  -0.05     0.01  -0.05   0.10    -0.14   0.38  -0.26
   2   1     0.07   0.06   0.05     0.03  -0.02  -0.04    -0.02   0.09  -0.07
   3   1    -0.03  -0.02  -0.01     0.02  -0.03   0.03    -0.15   0.18  -0.06
   4   8    -0.16   0.05   0.01     0.02  -0.09   0.07     0.13  -0.24   0.08
   5   1    -0.14   0.19  -0.08    -0.02   0.08  -0.04     0.07  -0.14   0.06
   6   1     0.61   0.54   0.37     0.13   0.04  -0.54    -0.31  -0.06   0.46
   7   6     0.10  -0.15  -0.04    -0.05   0.10  -0.00     0.08  -0.07   0.02
   8   1     0.07  -0.16   0.01     0.11  -0.32   0.24     0.12  -0.28   0.17
   9   1    -0.03  -0.04  -0.02    -0.45   0.20   0.03    -0.23  -0.06  -0.05
  10   1     0.12   0.02  -0.02     0.28   0.24  -0.30     0.26   0.15  -0.01
                      4                      5                      6
                        a                      a                      a 
 Frequencies --   397.4691               401.0805               760.1024
 Red. masses --     6.5747                 6.0284                 2.8189
 Frc consts  --     0.0000                 0.0000                 0.0000
 IR Inten    --     0.4224                 0.4598                 0.1528
 Raman Activ --     0.0000                 0.0000                 0.0000
 Depolar     --     0.0000                 0.0000                 0.0000
 Atom AN      X      Y      Z        X      Y      Z        X      Y      Z
   1   6    -0.16   0.09   0.24     0.20  -0.07  -0.24    -0.19   0.32  -0.04
   2   1    -0.01  -0.04   0.08     0.02  -0.02  -0.07     0.36  -0.40   0.32
   3   1    -0.02   0.01   0.08    -0.01   0.00  -0.07     0.27  -0.45  -0.16
   4   8    -0.07  -0.43  -0.19     0.27   0.06   0.34     0.07  -0.01   0.06
   5   1    -0.13   0.48  -0.41    -0.32   0.57  -0.17     0.01   0.01   0.01
   6   1    -0.16  -0.07   0.04    -0.09  -0.13   0.10    -0.03   0.06  -0.13
   7   6     0.23   0.22   0.04    -0.27  -0.09  -0.09    -0.07  -0.02  -0.08
   8   1     0.07   0.02  -0.16    -0.10   0.07   0.13     0.00  -0.06   0.01
   9   1     0.20   0.13   0.07    -0.17  -0.09  -0.07    -0.01  -0.21  -0.12
  10   1     0.11   0.10   0.05    -0.17  -0.09  -0.07     0.04   0.05   0.25
                      7                      8                      9
                        a                      a                      a 
 Frequencies --   946.2594               982.2354              1044.1882
 Red. masses --     6.2985                 3.1834                 5.6641
 Frc consts  --     0.0000                 0.0000                 0.0000
 IR Inten    --     0.4974                 0.5214                 0.3867
 Raman Activ --     0.0000                 0.0000                 0.0000
 Depolar     --     0.0000                 0.0000                 0.0000
 Atom AN      X      Y      Z        X      Y      Z        X      Y      Z
   1   6    -0.20   0.11   0.24    -0.03  -0.09   0.07    -0.00   0.23   0.34
   2   1     0.24  -0.20  -0.13    -0.45   0.44   0.32    -0.15   0.12   0.14
   3   1     0.00   0.23   0.16     0.08  -0.09  -0.00    -0.03   0.01   0.07
   4   8     0.30   0.17   0.01     0.27   0.06   0.01    -0.10  -0.01   0.09
   5   1     0.11   0.03  -0.01     0.01   0.04   0.00     0.42   0.10  -0.18
   6   1    -0.04   0.02   0.05    -0.04   0.05  -0.10    -0.06   0.10  -0.03
   7   6    -0.26  -0.34  -0.14    -0.24  -0.01  -0.12     0.17  -0.24  -0.38
   8   1    -0.07  -0.19  -0.42     0.01  -0.28  -0.24    -0.01   0.14   0.19
   9   1     0.11   0.23   0.16     0.10  -0.16  -0.09    -0.19  -0.17  -0.19
  10   1     0.04  -0.00  -0.21     0.16   0.14   0.26    -0.19  -0.22  -0.20
                     10                     11                     12
                        a                      a                      a 
 Frequencies --  1100.0837              1173.6793              1195.9624
 Red. masses --     3.9550                 7.6233                 3.3083
 Frc consts  --     0.0000                 0.0000                 0.0000
 IR Inten    --     0.4188                 1.1496                 0.5819
 Raman Activ --     0.0000                 0.0000                 0.0000
 Depolar     --     0.0000                 0.0000                 0.0000
 Atom AN      X      Y      Z        X      Y      Z        X      Y      Z
   1   6     0.14  -0.22   0.26     0.47   0.24  -0.02     0.27   0.14   0.02
   2   1     0.40   0.03  -0.23     0.33   0.31   0.26    -0.44  -0.48  -0.30
   3   1    -0.36   0.09   0.05     0.22   0.17   0.08     0.38   0.20   0.14
   4   8    -0.10   0.09  -0.03    -0.42  -0.14   0.05    -0.17  -0.12   0.11
   5   1     0.17   0.04  -0.07    -0.23  -0.05   0.07     0.08  -0.01  -0.02
   6   1     0.05  -0.18   0.06    -0.04  -0.08  -0.05     0.13   0.04   0.05
   7   6    -0.14   0.20  -0.22    -0.10  -0.17  -0.09    -0.14   0.10  -0.11
   8   1     0.04  -0.15   0.03    -0.01  -0.09  -0.17     0.00  -0.10  -0.07
   9   1    -0.02  -0.28  -0.23     0.05   0.04   0.03     0.03  -0.10  -0.09
  10   1     0.11   0.15   0.34     0.05   0.01  -0.06     0.06   0.09   0.15
                     13                     14                     15
                        a                      a                      a 
 Frequencies --  1244.3276              1324.0615              1347.6023
 Red. masses --     4.3772                 2.2014                 3.7304
 Frc consts  --     0.0000                 0.0000                 0.0000
 IR Inten    --     0.7783                 0.1890                 0.3537
 Raman Activ --     0.0000                 0.0000                 0.0000
 Depolar     --     0.0000                 0.0000                 0.0000
 Atom AN      X      Y      Z        X      Y      Z        X      Y      Z
   1   6     0.20   0.03  -0.28    -0.08  -0.13  -0.28     0.30   0.28   0.19
   2   1    -0.03   0.03  -0.02    -0.01  -0.28   0.61    -0.24  -0.29   0.16
   3   1    -0.17  -0.27  -0.24    -0.18   0.51   0.15    -0.62  -0.15  -0.17
   4   8    -0.21   0.02   0.19     0.01   0.03   0.06     0.04  -0.02  -0.15
   5   1     0.60   0.15  -0.25     0.16   0.02  -0.05    -0.27  -0.07   0.10
   6   1     0.03  -0.03   0.01     0.17  -0.16  -0.09     0.11  -0.02  -0.02
   7   6    -0.14  -0.06   0.23     0.02   0.03  -0.03    -0.04  -0.05   0.06
   8   1    -0.03  -0.07  -0.17    -0.00   0.06   0.08    -0.01  -0.07  -0.16
   9   1     0.13   0.15   0.17     0.01   0.03   0.01    -0.01  -0.09  -0.03
  10   1     0.09   0.07  -0.06     0.04   0.04   0.09    -0.03  -0.03  -0.16
                     16                     17                     18
                        a                      a                      a 
 Frequencies --  1415.2751              1476.5863              1485.9258
 Red. masses --     3.4448                 1.5495                 1.5419
 Frc consts  --     0.0000                 0.0000                 0.0000
 IR Inten    --     0.2213                 0.0658                 0.0538
 Raman Activ --     0.0000                 0.0000                 0.0000
 Depolar     --     0.0000                 0.0000                 0.0000
 Atom AN      X      Y      Z        X      Y      Z        X      Y      Z
   1   6     0.10   0.06   0.08    -0.02  -0.05   0.02    -0.05  -0.01   0.02
   2   1    -0.08  -0.01  -0.03    -0.01   0.02  -0.02     0.03  -0.01   0.01
   3   1    -0.12  -0.08  -0.05     0.03   0.01   0.02     0.03   0.02   0.02
   4   8     0.01  -0.00  -0.04     0.01   0.00  -0.00     0.01   0.00  -0.00
   5   1    -0.07  -0.01   0.02     0.00   0.00  -0.00    -0.01  -0.00   0.00
   6   1    -0.04   0.07   0.00     0.01  -0.01   0.01    -0.02   0.02  -0.01
   7   6    -0.12  -0.29  -0.31     0.03  -0.16   0.15    -0.21   0.03   0.04
   8   1    -0.08   0.29   0.41    -0.21   0.59  -0.32     0.00   0.03   0.36
   9   1     0.16   0.41   0.23    -0.30  -0.24  -0.15     0.61  -0.33  -0.09
  10   1     0.27   0.18   0.36     0.43   0.30  -0.10     0.21   0.16  -0.50
                     19                     20                     21
                        a                      a                      a 
 Frequencies --  1562.1015              2856.8021              2939.1170
 Red. masses --     2.2838                 1.7312                 1.7714
 Frc consts  --     0.0000                 0.0000                 0.0000
 IR Inten    --     0.6584                 0.3702                 0.1398
 Raman Activ --     0.0000                 0.0000                 0.0000
 Depolar     --     0.0000                 0.0000                 0.0000
 Atom AN      X      Y      Z        X      Y      Z        X      Y      Z
   1   6    -0.21   0.25   0.05    -0.04  -0.09   0.23    -0.00   0.01   0.00
   2   1    -0.07   0.16  -0.08     0.01  -0.02   0.02     0.01  -0.01   0.00
   3   1     0.10  -0.11  -0.04     0.17   0.38  -0.87    -0.00  -0.01   0.01
   4   8     0.03  -0.01  -0.00    -0.01  -0.01   0.00     0.00  -0.00  -0.00
   5   1    -0.02   0.00   0.00    -0.00   0.01   0.00     0.00   0.00   0.00
   6   1     0.57  -0.70   0.07    -0.00   0.00  -0.00    -0.00   0.00  -0.00
   7   6     0.01  -0.06  -0.04     0.00   0.01  -0.01    -0.16   0.21  -0.03
   8   1    -0.01   0.02   0.04    -0.02  -0.00   0.00     0.02   0.05  -0.01
   9   1     0.02   0.03   0.02    -0.01  -0.02   0.05    -0.04  -0.02   0.08
  10   1     0.00  -0.01  -0.02     0.01  -0.01  -0.00     0.57  -0.77   0.01
                     22                     23                     24
                        a                      a                      a 
 Frequencies --  2976.9614              2979.5512              3533.0063
 Red. masses --     1.7617                 1.6018                 1.8703
 Frc consts  --     0.0000                 0.0000                 0.0000
 IR Inten    --     0.1796                 0.1445                 0.1870
 Raman Activ --     0.0000                 0.0000                 0.0000
 Depolar     --     0.0000                 0.0000                 0.0000
 Atom AN      X      Y      Z        X      Y      Z        X      Y      Z
   1   6    -0.01  -0.01   0.01     0.00   0.00  -0.02    -0.00  -0.00  -0.00
   2   1    -0.00   0.00  -0.00    -0.00   0.00  -0.00    -0.00  -0.00  -0.00
   3   1     0.01   0.01  -0.02    -0.01  -0.02   0.04    -0.00   0.00   0.00
   4   8     0.00   0.00  -0.00     0.00   0.00   0.00    -0.06  -0.13  -0.19
   5   1    -0.00   0.00   0.00    -0.00  -0.00  -0.00     0.24   0.52   0.78
   6   1     0.00  -0.00   0.00     0.00  -0.00   0.00     0.00  -0.00  -0.00
   7   6    -0.24  -0.10   0.05     0.02   0.09  -0.21    -0.00  -0.00  -0.00
   8   1     0.91   0.27  -0.08     0.12   0.05  -0.04     0.00  -0.00  -0.00
   9   1    -0.02   0.05  -0.11    -0.12  -0.46   0.83    -0.00  -0.00   0.00
  10   1    -0.05   0.01   0.01    -0.06   0.10  -0.03    -0.00   0.00   0.00
