 Entering Gaussian System
 *********************************************
 Gaussian 98:
 frequency output generated by the xtb code
 *********************************************
                         Standard orientation:
 --------------------------------------------------------------------
  Center     Atomic     Atomic              Coordinates (Angstroms)
  Number     Number      Type              X           Y           Z
 --------------------------------------------------------------------
    1          6             0       -0.483713   -0.335039    0.023179
    2          1             0       -1.297717    0.626544   -0.028944
    3          1             0       -0.678022   -0.773826    1.012822
    4          8             0        0.810473    0.140474   -0.123112
    5          1             0        1.039497    0.663310    0.654086
    6          1             0       -1.963055    1.433993   -0.109141
    7          6             0       -0.840576   -1.250762   -1.118430
    8          1             0       -1.883587   -1.570094   -1.034897
    9          1             0       -0.707629   -0.730861   -2.071799
   10          1             0       -0.198469   -2.138710   -1.117010
 --------------------------------------------------------------------
     1 basis functions        1 primitive gaussians
     1 alpha electrons        1 beta electrons
 
 Harmonic frequencies (cm**-1), IR intensities (KM/Mole),
 Raman scattering activities (A**4/amu), Raman depolarization ratios,
 reduced masses (AMU), force constants (mDyne/A) and normal coordinates:
                      1                      2                      3
                        a                      a                      a 
 Frequencies --    91.3774               202.4052               297.6993
 Red. masses --    99.0000                99.0000                99.0000
 Frc consts  --    99.0000                99.0000                99.0000
 IR Inten    --    99.0000                99.0000                99.0000
 Raman Activ --     0.0000                 0.0000                 0.0000
 Depolar     --     0.0000                 0.0000                 0.0000
 Atom AN      X      Y      Z        X      Y      Z        X      Y      Z
   1   6    -0.11  -0.08  -0.05     0.01  -0.05   0.10    -0.14   0.38  -0.26
   2   1     0.07   0.06   0.05     0.03  -0.02  -0.04    -0.02   0.09  -0.07
   3   1    -0.03  -0.02  -0.01     0.02  -0.03   0.03    -0.15   0.18  -0.06
   4   8    -0.16   0.05   0.01     0.02  -0.09   0.07     0.13  -0.24   0.08
   5   1    -0.14   0.19  -0.08    -0.02   0.08  -0.04     0.07  -0.14   0.06
   6   1     0.61   0.54   0.37     0.13   0.04  -0.54    -0.31  -0.06   0.46
   7   6     0.10  -0.15  -0.04    -0.05   0.10  -0.00     0.08  -0.07   0.02
   8   1     0.07  -0.16   0.01     0.11  -0.32   0.24     0.12  -0.28   0.17
   9   1    -0.03  -0.04  -0.02    -0.45   0.20   0.03    -0.23  -0.06  -0.05
  10   1     0.12   0.02  -0.02     0.28   0.24  -0.30     0.26   0.15  -0.01
                      4                      5                      6
                        a                      a                      a 
 Frequencies --   397.4691               401.0805               760.1024
 Red. masses --    99.0000                99.0000                99.0000
 Frc consts  --    99.0000                99.0000                99.0000
 IR Inten    --    99.0000                99.0000                99.0000
 Raman Activ --     0.0000                 0.0000                 0.0000
 Depolar     --     0.0000                 0.0000                 0.0000
 Atom AN      X      Y      Z        X      Y      Z        X      Y      Z
   1   6    -0.16   0.09   0.24     0.20  -0.07  -0.24    -0.19   0.32  -0.04
   2   1    -0.01  -0.04   0.08     0.02  -0.02  -0.07     0.36  -0.40   0.32
   3   1    -0.02   0.01   0.08    -0.01   0.00  -0.07     0.27  -0.45  -0.16
   4   8    -0.07  -0.43  -0.19     0.27   0.06   0.34     0.07  -0.01   0.06
   5   1    -0.13   0.48  -0.41    -0.32   0.57  -0.17     0.01   0.01   0.01
   6   1    -0.16  -0.07   0.04    -0.09  -0.13   0.10    -0.03   0.06  -0.13
   7   6     0.23   0.22   0.04    -0.27  -0.09  -0.09    -0.07  -0.02  -0.08
   8   1     0.07   0.02  -0.16    -0.10   0.07   0.13     0.00  -0.06   0.01
   9   1     0.20   0.13   0.07    -0.17  -0.09  -0.07    -0.01  -0.21  -0.12
  10   1     0.11   0.10   0.05    -0.17  -0.09  -0.07     0.04   0.05   0.25
                      7                      8                      9
                        a                      a                      a 
 Frequencies --   982.2354              1173.6793              1195.9624
 Red. masses --    99.0000                99.0000                99.0000
 Frc consts  --    99.0000                99.0000                99.0000
 IR Inten    --    99.0000                99.0000                99.0000
 Raman Activ --     0.0000                 0.0000                 0.0000
 Depolar     --     0.0000                 0.0000                 0.0000
 Atom AN      X      Y      Z        X      Y      Z        X      Y      Z
   1   6    -0.03  -0.09   0.07     0.47   0.24  -0.02     0.27   0.14   0.02
   2   1    -0.45   0.44   0.32     0.33   0.31   0.26    -0.44  -0.48  -0.30
   3   1     0.08  -0.09  -0.00     0.22   0.17   0.08     0.38   0.20   0.14
   4   8     0.27   0.06   0.01    -0.42  -0.14   0.05    -0.17  -0.12   0.11
   5   1     0.01   0.04   0.00    -0.23  -0.05   0.07     0.08  -0.01  -0.02
   6   1    -0.04   0.05  -0.10    -0.04  -0.08  -0.05     0.13   0.04   0.05
   7   6    -0.24  -0.01  -0.12    -0.10  -0.17  -0.09    -0.14   0.10  -0.11
   8   1     0.01  -0.28  -0.24    -0.01  -0.09  -0.17     0.00  -0.10  -0.07
   9   1     0.10  -0.16  -0.09     0.05   0.04   0.03     0.03  -0.10  -0.09
  10   1     0.16   0.14   0.26     0.05   0.01  -0.06     0.06   0.09   0.15
                     10                     11                     12
                        a                      a                      a 
 Frequencies --  1100.0837              1044.1882              1347.6023
 Red. masses --    99.0000                99.0000                99.0000
 Frc consts  --    99.0000                99.0000                99.0000
 IR Inten    --    99.0000                99.0000                99.0000
 Raman Activ --     0.0000                 0.0000                 0.0000
 Depolar     --     0.0000                 0.0000                 0.0000
 Atom AN      X      Y      Z        X      Y      Z        X      Y      Z
   1   6     0.14  -0.22   0.26    -0.00   0.23   0.34     0.30   0.28   0.19
   2   1     0.40   0.03  -0.23    -0.15   0.12   0.14    -0.24  -0.29   0.16
   3   1    -0.36   0.09   0.05    -0.03   0.01   0.07    -0.62  -0.15  -0.17
   4   8    -0.10   0.09  -0.03    -0.10  -0.01   0.09     0.04  -0.02  -0.15
   5   1     0.17   0.04  -0.07     0.42   0.10  -0.18    -0.27  -0.07   0.10
   6   1     0.05  -0.18   0.06    -0.06   0.10  -0.03     0.11  -0.02  -0.02
   7   6    -0.14   0.20  -0.22     0.17  -0.24  -0.38    -0.04  -0.05   0.06
   8   1     0.04  -0.15   0.03    -0.01   0.14   0.19    -0.01  -0.07  -0.16
   9   1    -0.02  -0.28  -0.23    -0.19  -0.17  -0.19    -0.01  -0.09  -0.03
  10   1     0.11   0.15   0.34    -0.19  -0.22  -0.20    -0.03  -0.03  -0.16
                     13                     14                     15
                        a                      a                      a 
 Frequencies --  1485.9258              1415.2751              1476.5863
 Red. masses --    99.0000                99.0000                99.0000
 Frc consts  --    99.0000                99.0000                99.0000
 IR Inten    --    99.0000                99.0000                99.0000
 Raman Activ --     0.0000                 0.0000                 0.0000
 Depolar     --     0.0000                 0.0000                 0.0000
 Atom AN      X      Y      Z        X      Y      Z        X      Y      Z
   1   6    -0.05  -0.01   0.02     0.10   0.06   0.08    -0.02  -0.05   0.02
   2   1     0.03  -0.01   0.01    -0.08  -0.01  -0.03    -0.01   0.02  -0.02
   3   1     0.03   0.02   0.02    -0.12  -0.08  -0.05     0.03   0.01   0.02
   4   8     0.01   0.00  -0.00     0.01  -0.00  -0.04     0.01   0.00  -0.00
   5   1    -0.01  -0.00   0.00    -0.07  -0.01   0.02     0.00   0.00  -0.00
   6   1    -0.02   0.02  -0.01    -0.04   0.07   0.00     0.01  -0.01   0.01
   7   6    -0.21   0.03   0.04    -0.12  -0.29  -0.31     0.03  -0.16   0.15
   8   1     0.00   0.03   0.36    -0.08   0.29   0.41    -0.21   0.59  -0.32
   9   1     0.61  -0.33  -0.09     0.16   0.41   0.23    -0.30  -0.24  -0.15
  10   1     0.21   0.16  -0.50     0.27   0.18   0.36     0.43   0.30  -0.10
                     16                     17                     18
                        a                      a                      a 
 Frequencies --  1324.0615               946.2594              1244.3276
 Red. masses --    99.0000                99.0000                99.0000
 Frc consts  --    99.0000                99.0000                99.0000
 IR Inten    --    99.0000                99.0000                99.0000
 Raman Activ --     0.0000                 0.0000                 0.0000
 Depolar     --     0.0000                 0.0000                 0.0000
 Atom AN      X      Y      Z        X      Y      Z        X      Y      Z
   1   6    -0.08  -0.13  -0.28    -0.20   0.11   0.24     0.20   0.03  -0.28
   2   1    -0.01  -0.28   0.61     0.24  -0.20  -0.13    -0.03   0.03  -0.02
   3   1    -0.18   0.51   0.15     0.00   0.23   0.16    -0.17  -0.27  -0.24
   4   8     0.01   0.03   0.06     0.30   0.17   0.01    -0.21   0.02   0.19
   5   1     0.16   0.02  -0.05     0.11   0.03  -0.01     0.60   0.15  -0.25
   6   1     0.17  -0.16  -0.09    -0.04   0.02   0.05     0.03  -0.03   0.01
   7   6     0.02   0.03  -0.03    -0.26  -0.34  -0.14    -0.14  -0.06   0.23
   8   1    -0.00   0.06   0.08    -0.07  -0.19  -0.42    -0.03  -0.07  -0.17
   9   1     0.01   0.03   0.01     0.11   0.23   0.16     0.13   0.15   0.17
  10   1     0.04   0.04   0.09     0.04  -0.00  -0.21     0.09   0.07  -0.06
                     19                     20                     21
                        a                      a                      a 
 Frequencies --  1562.1015              2856.8021              2939.1170
 Red. masses --    99.0000                99.0000                99.0000
 Frc consts  --    99.0000                99.0000                99.0000
 IR Inten    --    99.0000                99.0000                99.0000
 Raman Activ --     0.0000                 0.0000                 0.0000
 Depolar     --     0.0000                 0.0000                 0.0000
 Atom AN      X      Y      Z        X      Y      Z        X      Y      Z
   1   6    -0.21   0.25   0.05    -0.04  -0.09   0.23    -0.00   0.01   0.00
   2   1    -0.07   0.16  -0.08     0.01  -0.02   0.02     0.01  -0.01   0.00
   3   1     0.10  -0.11  -0.04     0.17   0.38  -0.87    -0.00  -0.01   0.01
   4   8     0.03  -0.01  -0.00    -0.01  -0.01   0.00     0.00  -0.00  -0.00
   5   1    -0.02   0.00   0.00    -0.00   0.01   0.00     0.00   0.00   0.00
   6   1     0.57  -0.70   0.07    -0.00   0.00  -0.00    -0.00   0.00  -0.00
   7   6     0.01  -0.06  -0.04     0.00   0.01  -0.01    -0.16   0.21  -0.03
   8   1    -0.01   0.02   0.04    -0.02  -0.00   0.00     0.02   0.05  -0.01
   9   1     0.02   0.03   0.02    -0.01  -0.02   0.05    -0.04  -0.02   0.08
  10   1     0.00  -0.01  -0.02     0.01  -0.01  -0.00     0.57  -0.77   0.01
                     22                     23                     24
                        a                      a                      a 
 Frequencies --  2976.9614              2979.5512              3533.0063
 Red. masses --    99.0000                99.0000                99.0000
 Frc consts  --    99.0000                99.0000                99.0000
 IR Inten    --    99.0000                99.0000                99.0000
 Raman Activ --     0.0000                 0.0000                 0.0000
 Depolar     --     0.0000                 0.0000                 0.0000
 Atom AN      X      Y      Z        X      Y      Z        X      Y      Z
   1   6    -0.01  -0.01   0.01     0.00   0.00  -0.02    -0.00  -0.00  -0.00
   2   1    -0.00   0.00  -0.00    -0.00   0.00  -0.00    -0.00  -0.00  -0.00
   3   1     0.01   0.01  -0.02    -0.01  -0.02   0.04    -0.00   0.00   0.00
   4   8     0.00   0.00  -0.00     0.00   0.00   0.00    -0.06  -0.13  -0.19
   5   1    -0.00   0.00   0.00    -0.00  -0.00  -0.00     0.24   0.52   0.78
   6   1     0.00  -0.00   0.00     0.00  -0.00   0.00     0.00  -0.00  -0.00
   7   6    -0.24  -0.10   0.05     0.02   0.09  -0.21    -0.00  -0.00  -0.00
   8   1     0.91   0.27  -0.08     0.12   0.05  -0.04     0.00  -0.00  -0.00
   9   1    -0.02   0.05  -0.11    -0.12  -0.46   0.83    -0.00  -0.00   0.00
  10   1    -0.05   0.01   0.01    -0.06   0.10  -0.03    -0.00   0.00   0.00
