 Entering Gaussian System, Link 0=g16
 Input=calc.gjf
 Output=calc.log
 Initial command:
 /share/apps/Gaussian/g16a03/g16/l1.exe "/home/ua25450/oneqbit/solution-entropy/benchmarks2/ts-etoh-h/Gau-310487.inp" -scrdir="/home/ua25450/oneqbit/solution-entropy/benchmarks2/ts-etoh-h/"
 Entering Link 1 = /share/apps/Gaussian/g16a03/g16/l1.exe PID=    310488.
  
 Copyright (c) 1988,1990,1992,1993,1995,1998,2003,2009,2016,
            Gaussian, Inc.  All Rights Reserved.
  
 This is part of the Gaussian(R) 16 program.  It is based on
 the Gaussian(R) 09 system (copyright 2009, Gaussian, Inc.),
 the Gaussian(R) 03 system (copyright 2003, Gaussian, Inc.),
 the Gaussian(R) 98 system (copyright 1998, Gaussian, Inc.),
 the Gaussian(R) 94 system (copyright 1995, Gaussian, Inc.),
 the Gaussian 92(TM) system (copyright 1992, Gaussian, Inc.),
 the Gaussian 90(TM) system (copyright 1990, Gaussian, Inc.),
 the Gaussian 88(TM) system (copyright 1988, Gaussian, Inc.),
 the Gaussian 86(TM) system (copyright 1986, Carnegie Mellon
 University), and the Gaussian 82(TM) system (copyright 1983,
 Carnegie Mellon University). Gaussian is a federally registered
 trademark of Gaussian, Inc.
  
 This software contains proprietary and confidential information,
 including trade secrets, belonging to Gaussian, Inc.
  
 This software is provided under written license and may be
 used, copied, transmitted, or stored only in accord with that
 written license.
  
 The following legend is applicable only to US Government
 contracts under FAR:
  
                    RESTRICTED RIGHTS LEGEND
  
 Use, reproduction and disclosure by the US Government is
 subject to restrictions as set forth in subparagraphs (a)
 and (c) of the Commercial Computer Software - Restricted
 Rights clause in FAR 52.227-19.
  
 Gaussian, Inc.
 340 Quinnipiac St., Bldg. 40, Wallingford CT 06492
  
  
 ---------------------------------------------------------------
 Warning -- This program may not be used in any manner that
 competes with the business of Gaussian, Inc. or will provide
 assistance to any competitor of Gaussian, Inc.  The licensee
 of this program is prohibited from giving any competitor of
 Gaussian, Inc. access to this program.  By using this program,
 the user acknowledges that Gaussian, Inc. is engaged in the
 business of creating and licensing software in the field of
 computational chemistry and represents and warrants to the
 licensee that it is not a competitor of Gaussian, Inc. and that
 it will not use this program in any manner prohibited above.
 ---------------------------------------------------------------
  

 Cite this work as:
 Gaussian 16, Revision A.03,
 M. J. Frisch, G. W. Trucks, H. B. Schlegel, G. E. Scuseria, 
 M. A. Robb, J. R. Cheeseman, G. Scalmani, V. Barone, 
 G. A. Petersson, H. Nakatsuji, X. Li, M. Caricato, A. V. Marenich, 
 J. Bloino, B. G. Janesko, R. Gomperts, B. Mennucci, H. P. Hratchian, 
 J. V. Ortiz, A. F. Izmaylov, J. L. Sonnenberg, D. Williams-Young, 
 F. Ding, F. Lipparini, F. Egidi, J. Goings, B. Peng, A. Petrone, 
 T. Henderson, D. Ranasinghe, V. G. Zakrzewski, J. Gao, N. Rega, 
 G. Zheng, W. Liang, M. Hada, M. Ehara, K. Toyota, R. Fukuda, 
 J. Hasegawa, M. Ishida, T. Nakajima, Y. Honda, O. Kitao, H. Nakai, 
 T. Vreven, K. Throssell, J. A. Montgomery, Jr., J. E. Peralta, 
 F. Ogliaro, M. J. Bearpark, J. J. Heyd, E. N. Brothers, K. N. Kudin, 
 V. N. Staroverov, T. A. Keith, R. Kobayashi, J. Normand, 
 K. Raghavachari, A. P. Rendell, J. C. Burant, S. S. Iyengar, 
 J. Tomasi, M. Cossi, J. M. Millam, M. Klene, C. Adamo, R. Cammi, 
 J. W. Ochterski, R. L. Martin, K. Morokuma, O. Farkas, 
 J. B. Foresman, and D. J. Fox, Gaussian, Inc., Wallingford CT, 2016.
 
 ******************************************
 Gaussian 16:  ES64L-G16RevA.03 25-Dec-2016
                 8-Nov-2018 
 ******************************************
 %chk=calc.chk
 %nprocshared=2
 Will use up to    2 processors via shared memory.
 %mem=16GB
 ----------------------------------------------------------------------
 # opt=(modredundant,loose) freq wb97xd/6-31g(d) 5d scf=(maxconventiona
 lcycles=100,xqc)
 ----------------------------------------------------------------------
 1/7=-1,18=120,19=15,26=3,38=1/1,3;
 2/9=110,12=2,17=6,18=5,40=1/2;
 3/5=1,6=6,7=1,8=1,11=2,25=1,30=1,71=1,74=-58/1,2,3;
 4//1;
 5/5=2,8=3,13=1,38=5,85=100/2,8;
 6/7=2,8=2,9=2,10=2,28=1/1;
 7//1,2,3,16;
 1/7=-1,18=20,19=15,26=3/3(2);
 2/9=110/2;
 99//99;
 2/9=110/2;
 3/5=1,6=6,7=1,8=1,11=2,25=1,30=1,71=1,74=-58/1,2,3;
 4/5=5,16=3,69=1/1;
 5/5=2,8=3,13=1,38=5,85=100/2,8;
 7//1,2,3,16;
 1/7=-1,18=20,19=15,26=3/3(-5);
 2/9=110/2;
 6/7=2,8=2,9=2,10=2,19=2,28=1/1;
 99/9=1/99;
 -------
 comment
 -------
 Symbolic Z-matrix:
 Charge =  0 Multiplicity = 2
 C                    -0.47843  -0.32406   0.03997 
 H                    -1.322     0.65142  -0.0556 
 H                    -0.70165  -0.77289   1.0165 
 O                     0.81587   0.12309  -0.11857 
 H                     1.06665   0.63285   0.6604 
 H                    -1.9637    1.43327  -0.12426 
 C                    -0.84177  -1.25752  -1.12974 
 H                    -1.85056  -1.59565  -1.01612 
 H                    -0.74567  -0.72595  -2.05337 
 H                    -0.18154  -2.09953  -1.13246 
 
 Add virtual bond connecting atoms H6         and H2         Dist= 1.92D+00.
 The following ModRedundant input section has been read:
 B       1       2 F                                                           
 B       2       6 F                                                           
 

 GradGradGradGradGradGradGradGradGradGradGradGradGradGradGradGradGradGrad
 Berny optimization.
 Initialization pass.
                           ----------------------------
                           !    Initial Parameters    !
                           ! (Angstroms and Degrees)  !
 --------------------------                            --------------------------
 ! Name  Definition              Value          Derivative Info.                !
 --------------------------------------------------------------------------------
 ! R1    R(1,2)                  1.2932         Frozen                          !
 ! R2    R(1,3)                  1.0977         estimate D2E/DX2                !
 ! R3    R(1,4)                  1.3785         estimate D2E/DX2                !
 ! R4    R(1,7)                  1.54           estimate D2E/DX2                !
 ! R5    R(2,6)                  1.0138         Frozen                          !
 ! R6    R(4,5)                  0.9641         estimate D2E/DX2                !
 ! R7    R(7,8)                  1.07           estimate D2E/DX2                !
 ! R8    R(7,9)                  1.07           estimate D2E/DX2                !
 ! R9    R(7,10)                 1.07           estimate D2E/DX2                !
 ! A1    A(2,1,3)              103.977          estimate D2E/DX2                !
 ! A2    A(2,1,4)              111.0568         estimate D2E/DX2                !
 ! A3    A(2,1,7)              104.3111         estimate D2E/DX2                !
 ! A4    A(3,1,4)              115.207          estimate D2E/DX2                !
 ! A5    A(3,1,7)              112.3273         estimate D2E/DX2                !
 ! A6    A(4,1,7)              109.3164         estimate D2E/DX2                !
 ! A7    A(1,4,5)              108.8321         estimate D2E/DX2                !
 ! A8    A(1,7,8)              109.4712         estimate D2E/DX2                !
 ! A9    A(1,7,9)              109.4712         estimate D2E/DX2                !
 ! A10   A(1,7,10)             109.4712         estimate D2E/DX2                !
 ! A11   A(8,7,9)              109.4713         estimate D2E/DX2                !
 ! A12   A(8,7,10)             109.4712         estimate D2E/DX2                !
 ! A13   A(9,7,10)             109.4712         estimate D2E/DX2                !
 ! A14   L(1,2,6,9,-1)         180.6544         estimate D2E/DX2                !
 ! A15   L(1,2,6,9,-2)         181.5902         estimate D2E/DX2                !
 ! D1    D(2,1,4,5)             71.147          estimate D2E/DX2                !
 ! D2    D(3,1,4,5)            -46.7108         estimate D2E/DX2                !
 ! D3    D(7,1,4,5)           -174.2944         estimate D2E/DX2                !
 ! D4    D(2,1,7,8)            -60.4047         estimate D2E/DX2                !
 ! D5    D(2,1,7,9)             59.5953         estimate D2E/DX2                !
 ! D6    D(2,1,7,10)           179.5953         estimate D2E/DX2                !
 ! D7    D(3,1,7,8)             51.5725         estimate D2E/DX2                !
 ! D8    D(3,1,7,9)            171.5725         estimate D2E/DX2                !
 ! D9    D(3,1,7,10)           -68.4275         estimate D2E/DX2                !
 ! D10   D(4,1,7,8)           -179.2428         estimate D2E/DX2                !
 ! D11   D(4,1,7,9)            -59.2428         estimate D2E/DX2                !
 ! D12   D(4,1,7,10)            60.7572         estimate D2E/DX2                !
 --------------------------------------------------------------------------------
 Trust Radius=3.00D-01 FncErr=1.00D-07 GrdErr=1.00D-06 EigMax=2.50D+02 EigMin=1.00D-04
 Number of steps in this run=     46 maximum allowed number of steps=    100.
 GradGradGradGradGradGradGradGradGradGradGradGradGradGradGradGradGradGrad

                          Input orientation:                          
 ---------------------------------------------------------------------
 Center     Atomic      Atomic             Coordinates (Angstroms)
 Number     Number       Type             X           Y           Z
 ---------------------------------------------------------------------
      1          6           0       -0.478428   -0.324057    0.039972
      2          1           0       -1.321996    0.651418   -0.055601
      3          1           0       -0.701652   -0.772889    1.016501
      4          8           0        0.815872    0.123093   -0.118572
      5          1           0        1.066648    0.632846    0.660400
      6          1           0       -1.963697    1.433269   -0.124258
      7          6           0       -0.841773   -1.257519   -1.129741
      8          1           0       -1.850561   -1.595655   -1.016116
      9          1           0       -0.745675   -0.725948   -2.053374
     10          1           0       -0.181537   -2.099529   -1.132456
 ---------------------------------------------------------------------
                    Distance matrix (angstroms):
                    1          2          3          4          5
     1  C    0.000000
     2  H    1.293172   0.000000
     3  H    1.097674   1.887559   0.000000
     4  O    1.378511   2.203082   2.096200   0.000000
     5  H    1.920379   2.493717   2.286872   0.964123   0.000000
     6  H    2.306771   1.013797   2.785897   3.072881   3.230999
     7  C    1.540000   2.242417   2.204735   2.382507   3.228027
     8  H    2.148263   2.500261   2.475574   3.296899   4.035719
     9  H    2.148263   2.494068   3.070549   2.627309   3.534883
    10  H    2.148263   3.166698   2.578471   2.638719   3.498310
                    6          7          8          9         10
     6  H    0.000000
     7  C    3.083837   0.000000
     8  H    3.159524   1.070000   0.000000
     9  H    3.141223   1.070000   1.747303   0.000000
    10  H    4.083286   1.070000   1.747303   1.747303   0.000000
 Stoichiometry    C2H7O(2)
 Framework group  C1[X(C2H7O)]
 Deg. of freedom    24
 Full point group                 C1      NOp   1
 Largest Abelian subgroup         C1      NOp   1
 Largest concise Abelian subgroup C1      NOp   1
                         Standard orientation:                         
 ---------------------------------------------------------------------
 Center     Atomic      Atomic             Coordinates (Angstroms)
 Number     Number       Type             X           Y           Z
 ---------------------------------------------------------------------
      1          6           0        0.114252    0.349296    0.304274
      2          1           0        0.113512    1.500430   -0.284948
      3          1           0        0.176774    0.597830    1.371612
      4          8           0        1.130535   -0.450635   -0.172770
      5          1           0        1.973202   -0.104822    0.143235
      6          1           0        0.138731    2.399298   -0.753120
      7          6           0       -1.243204   -0.272387   -0.073117
      8          1           0       -2.033917    0.353487    0.284592
      9          1           0       -1.311661   -0.360423   -1.137289
     10          1           0       -1.327202   -1.242173    0.371134
 ---------------------------------------------------------------------
 Rotational constants (GHZ):          23.7227583           8.9682343           7.5941470
 Standard basis: 6-31G(d) (5D, 7F)
 There are    59 symmetry adapted cartesian basis functions of A   symmetry.
 There are    56 symmetry adapted basis functions of A   symmetry.
    56 basis functions,   112 primitive gaussians,    59 cartesian basis functions
    14 alpha electrons       13 beta electrons
       nuclear repulsion energy        86.8379863325 Hartrees.
 NAtoms=   10 NActive=   10 NUniq=   10 SFac= 1.00D+00 NAtFMM=   60 NAOKFM=F Big=F
 Integral buffers will be    131072 words long.
 Raffenetti 2 integral format.
 Two-electron integral symmetry is turned on.
 Nuclear repulsion after empirical dispersion term =       86.8348841763 Hartrees.
 One-electron integrals computed using PRISM.
 NBasis=    56 RedAO= T EigKep=  6.92D-03  NBF=    56
 NBsUse=    56 1.00D-06 EigRej= -1.00D+00 NBFU=    56
 ExpMin= 1.61D-01 ExpMax= 5.48D+03 ExpMxC= 8.25D+02 IAcc=3 IRadAn=         5 AccDes= 0.00D+00
 Harris functional with IExCor= 4639 and IRadAn=       5 diagonalized for initial guess.
 HarFok:  IExCor= 4639 AccDes= 0.00D+00 IRadAn=         5 IDoV= 1 UseB2=F ITyADJ=14
 ICtDFT=  3500011 ScaDFX=  1.000000  1.000000  1.000000  1.000000
 FoFCou: FMM=F IPFlag=           0 FMFlag=      100000 FMFlg1=           0
         NFxFlg=           0 DoJE=T BraDBF=F KetDBF=T FulRan=T
         wScrn=  0.000000 ICntrl=       500 IOpCl=  0 I1Cent=   200000004 NGrid=           0
         NMat0=    1 NMatS0=      1 NMatT0=    0 NMatD0=    1 NMtDS0=    0 NMtDT0=    0
 Petite list used in FoFCou.
 Initial guess <Sx>= 0.0000 <Sy>= 0.0000 <Sz>= 0.5000 <S**2>= 0.7500 S= 0.5000
 Keep R1 and R2 ints in memory in canonical form, NReq=6858140.
 Requested convergence on RMS density matrix=1.00D-08 within 100 cycles.
 Requested convergence on MAX density matrix=1.00D-06.
 Requested convergence on             energy=1.00D-06.
 No special actions if energy rises.
 Integral accuracy reduced to 1.0D-05 until final iterations.
 Initial convergence to 1.0D-05 achieved.  Increase integral accuracy.
 SCF Done:  E(UwB97XD) =  -155.470871557     A.U. after   17 cycles
            NFock= 17  Conv=0.96D-08     -V/T= 2.0055
 <Sx>= 0.0000 <Sy>= 0.0000 <Sz>= 0.5000 <S**2>= 0.7577 S= 0.5038
 <L.S>= 0.000000000000E+00
 Annihilation of the first spin contaminant:
 S**2 before annihilation     0.7577,   after     0.7500
 QCSCF skips out because SCF is already converged.

 **********************************************************************

            Population analysis using the SCF density.

 **********************************************************************

 Orbital symmetries:
 Alpha Orbitals:
       Occupied  (A) (A) (A) (A) (A) (A) (A) (A) (A) (A) (A) (A)
                 (A) (A)
       Virtual   (A) (A) (A) (A) (A) (A) (A) (A) (A) (A) (A) (A)
                 (A) (A) (A) (A) (A) (A) (A) (A) (A) (A) (A) (A)
                 (A) (A) (A) (A) (A) (A) (A) (A) (A) (A) (A) (A)
                 (A) (A) (A) (A) (A) (A)
 Beta  Orbitals:
       Occupied  (A) (A) (A) (A) (A) (A) (A) (A) (A) (A) (A) (A)
                 (A)
       Virtual   (A) (A) (A) (A) (A) (A) (A) (A) (A) (A) (A) (A)
                 (A) (A) (A) (A) (A) (A) (A) (A) (A) (A) (A) (A)
                 (A) (A) (A) (A) (A) (A) (A) (A) (A) (A) (A) (A)
                 (A) (A) (A) (A) (A) (A) (A)
 The electronic state is 2-A.
 Alpha  occ. eigenvalues --  -19.28565 -10.35358 -10.27601  -1.15087  -0.85414
 Alpha  occ. eigenvalues --   -0.71735  -0.63166  -0.57537  -0.50369  -0.47974
 Alpha  occ. eigenvalues --   -0.47165  -0.43585  -0.40475  -0.26504
 Alpha virt. eigenvalues --    0.16067   0.20999   0.23880   0.26305   0.27038
 Alpha virt. eigenvalues --    0.29044   0.30607   0.32265   0.61531   0.63205
 Alpha virt. eigenvalues --    0.65075   0.65744   0.72418   0.75588   0.85280
 Alpha virt. eigenvalues --    0.90292   0.96691   0.97833   1.00843   1.01797
 Alpha virt. eigenvalues --    1.06784   1.10934   1.11960   1.18226   1.29644
 Alpha virt. eigenvalues --    1.49397   1.51328   1.57038   1.77446   1.82983
 Alpha virt. eigenvalues --    1.85175   1.96651   1.99850   2.13048   2.23927
 Alpha virt. eigenvalues --    2.32818   2.38960   2.45435   2.50980   2.60095
 Alpha virt. eigenvalues --    2.71168   2.92436
  Beta  occ. eigenvalues --  -19.28363 -10.34596 -10.27618  -1.14437  -0.84602
  Beta  occ. eigenvalues --   -0.70514  -0.62317  -0.55099  -0.49719  -0.47783
  Beta  occ. eigenvalues --   -0.46040  -0.42123  -0.37832
  Beta virt. eigenvalues --    0.00646   0.16328   0.21276   0.24340   0.26369
  Beta virt. eigenvalues --    0.27312   0.29756   0.31866   0.34643   0.62046
  Beta virt. eigenvalues --    0.63622   0.65485   0.66552   0.73375   0.77365
  Beta virt. eigenvalues --    0.87544   0.92478   0.97901   0.98858   1.01106
  Beta virt. eigenvalues --    1.02626   1.07382   1.11255   1.12283   1.18563
  Beta virt. eigenvalues --    1.30868   1.49604   1.52531   1.58178   1.77986
  Beta virt. eigenvalues --    1.83505   1.85460   1.97317   2.01246   2.14681
  Beta virt. eigenvalues --    2.25259   2.33217   2.39663   2.45820   2.52551
  Beta virt. eigenvalues --    2.60925   2.72046   2.93202
          Condensed to atoms (all electrons):
               1          2          3          4          5          6
     1  C    5.096895   0.177057   0.362568   0.262952  -0.030960  -0.144814
     2  H    0.177057   0.737408  -0.042535  -0.032331  -0.001397   0.190649
     3  H    0.362568  -0.042535   0.600001  -0.036982  -0.004982   0.005295
     4  O    0.262952  -0.032331  -0.036982   8.194897   0.254778   0.003403
     5  H   -0.030960  -0.001397  -0.004982   0.254778   0.346231   0.000578
     6  H   -0.144814   0.190649   0.005295   0.003403   0.000578   0.998641
     7  C    0.353028  -0.035261  -0.040606  -0.055095   0.006445   0.004007
     8  H   -0.028847  -0.000010   0.000111   0.002634  -0.000226   0.000831
     9  H   -0.032227  -0.007008   0.004916   0.001950  -0.000105   0.001904
    10  H   -0.030333   0.003930  -0.004306   0.001637  -0.000137  -0.000235
               7          8          9         10
     1  C    0.353028  -0.028847  -0.032227  -0.030333
     2  H   -0.035261  -0.000010  -0.007008   0.003930
     3  H   -0.040606   0.000111   0.004916  -0.004306
     4  O   -0.055095   0.002634   0.001950   0.001637
     5  H    0.006445  -0.000226  -0.000105  -0.000137
     6  H    0.004007   0.000831   0.001904  -0.000235
     7  C    5.140463   0.372888   0.382578   0.382153
     8  H    0.372888   0.526238  -0.023755  -0.025792
     9  H    0.382578  -0.023755   0.506354  -0.028204
    10  H    0.382153  -0.025792  -0.028204   0.512582
          Atomic-Atomic Spin Densities.
               1          2          3          4          5          6
     1  C    0.707355   0.078469  -0.042228  -0.078760  -0.003481  -0.148505
     2  H    0.078469  -0.177778   0.002888   0.001484  -0.000225  -0.050658
     3  H   -0.042228   0.002888   0.022875   0.000393   0.001136   0.010102
     4  O   -0.078760   0.001484   0.000393   0.130878  -0.000108   0.008064
     5  H   -0.003481  -0.000225   0.001136  -0.000108  -0.000182   0.000764
     6  H   -0.148505  -0.050658   0.010102   0.008064   0.000764   0.780017
     7  C   -0.036194   0.002459   0.008476   0.002361   0.000154   0.007917
     8  H   -0.001594  -0.000614   0.000530   0.000025   0.000005   0.000527
     9  H   -0.008580  -0.000183   0.000782   0.000749   0.000062   0.002761
    10  H   -0.004549  -0.000258  -0.002655   0.001329  -0.000085  -0.000474
               7          8          9         10
     1  C   -0.036194  -0.001594  -0.008580  -0.004549
     2  H    0.002459  -0.000614  -0.000183  -0.000258
     3  H    0.008476   0.000530   0.000782  -0.002655
     4  O    0.002361   0.000025   0.000749   0.001329
     5  H    0.000154   0.000005   0.000062  -0.000085
     6  H    0.007917   0.000527   0.002761  -0.000474
     7  C   -0.007811   0.001988   0.002744   0.002304
     8  H    0.001988   0.000062   0.000636  -0.001249
     9  H    0.002744   0.000636   0.011777  -0.005085
    10  H    0.002304  -0.001249  -0.005085   0.025564
 Mulliken charges and spin densities:
               1          2
     1  C    0.014681   0.461933
     2  H    0.009498  -0.144417
     3  H    0.156519   0.002298
     4  O   -0.597844   0.066414
     5  H    0.429776  -0.001962
     6  H   -0.060259   0.610514
     7  C   -0.510600  -0.015602
     8  H    0.175928   0.000316
     9  H    0.193596   0.005663
    10  H    0.188704   0.014842
 Sum of Mulliken charges =  -0.00000   1.00000
 Mulliken charges and spin densities with hydrogens summed into heavy atoms:
               1          2
     1  C    0.120439   0.930329
     4  O   -0.168068   0.064452
     7  C    0.047629   0.005219
 Electronic spatial extent (au):  <R**2>=            221.9207
 Charge=             -0.0000 electrons
 Dipole moment (field-independent basis, Debye):
    X=              0.4983    Y=             -0.2081    Z=              1.4460  Tot=              1.5435
 Quadrupole moment (field-independent basis, Debye-Ang):
   XX=            -16.7673   YY=            -25.1184   ZZ=            -21.1671
   XY=              1.0007   XZ=              1.3715   YZ=              1.0292
 Traceless Quadrupole moment (field-independent basis, Debye-Ang):
   XX=              4.2503   YY=             -4.1008   ZZ=             -0.1495
   XY=              1.0007   XZ=              1.3715   YZ=              1.0292
 Octapole moment (field-independent basis, Debye-Ang**2):
  XXX=             16.2490  YYY=            -14.6739  ZZZ=              1.4207  XYY=             -0.0251
  XXY=             -0.7753  XXZ=              2.4980  XZZ=              1.1341  YZZ=             -2.6449
  YYZ=              3.3947  XYZ=             -0.1939
 Hexadecapole moment (field-independent basis, Debye-Ang**3):
 XXXX=           -125.7076 YYYY=           -122.0219 ZZZZ=            -41.9908 XXXY=             -3.9903
 XXXZ=              2.1186 YYYX=             -2.3227 YYYZ=              8.7538 ZZZX=              1.5259
 ZZZY=              5.1104 XXYY=            -43.1274 XXZZ=            -32.8996 YYZZ=            -26.1881
 XXYZ=              1.2950 YYXZ=             -0.3043 ZZXY=             -0.5148
 N-N= 8.683488417634D+01 E-N=-5.366713736363D+02  KE= 1.546272393603D+02
                          Isotropic Fermi Contact Couplings
        Atom                 a.u.       MegaHertz       Gauss      10(-4) cm-1
     1  C(13)              0.19995     224.78240      80.20795      74.97934
     2  H(1)              -0.02640    -117.99680     -42.10419     -39.35950
     3  H(1)               0.00150       6.72406       2.39931       2.24290
     4  O(17)              0.01721     -10.42960      -3.72154      -3.47894
     5  H(1)              -0.00052      -2.33324      -0.83256      -0.77829
     6  H(1)               0.18810     840.80655     300.02068     280.46288
     7  C(13)             -0.00725      -8.15339      -2.90933      -2.71968
     8  H(1)               0.00017       0.74790       0.26687       0.24947
     9  H(1)               0.00216       9.65310       3.44447       3.21993
    10  H(1)               0.00753      33.63703      12.00253      11.22011
 --------------------------------------------------------
       Center         ----  Spin Dipole Couplings  ----
                      3XX-RR        3YY-RR        3ZZ-RR
 --------------------------------------------------------
     1   Atom       -0.280518      0.348558     -0.068040
     2   Atom       -0.105541      0.145060     -0.039519
     3   Atom       -0.033134     -0.008034      0.041168
     4   Atom       -0.189923      0.200447     -0.010524
     5   Atom        0.018623     -0.007217     -0.011405
     6   Atom        0.008759     -0.011728      0.002969
     7   Atom        0.009444      0.001783     -0.011227
     8   Atom        0.010272     -0.003631     -0.006642
     9   Atom        0.000959      0.000488     -0.001447
    10   Atom        0.001397      0.003694     -0.005091
 --------------------------------------------------------
                        XY            XZ            YZ
 --------------------------------------------------------
     1   Atom        0.074400     -0.036917     -0.376082
     2   Atom       -0.001389      0.001043     -0.128768
     3   Atom        0.004339      0.003327      0.005822
     4   Atom       -0.016499      0.026908     -0.276732
     5   Atom       -0.000554      0.010356     -0.001405
     6   Atom       -0.000852      0.000460      0.010861
     7   Atom        0.016623      0.000799     -0.000528
     8   Atom        0.003498     -0.001342     -0.002066
     9   Atom        0.006283      0.007172      0.003749
    10   Atom        0.006192      0.000700     -0.001902
 --------------------------------------------------------


 ---------------------------------------------------------------------------------
              Anisotropic Spin Dipole Couplings in Principal Axis System
 ---------------------------------------------------------------------------------

       Atom             a.u.   MegaHertz   Gauss  10(-4) cm-1        Axes

              Baa    -0.2950   -39.593   -14.128   -13.207  0.6692 -0.4310 -0.6053
     1 C(13)  Bbb    -0.2831   -37.991   -13.556   -12.673  0.7368  0.2797  0.6155
              Bcc     0.5782    77.584    27.684    25.879  0.0960  0.8579 -0.5048
 
              Baa    -0.1059   -56.504   -20.162   -18.848 -0.6419  0.3472  0.6837
     2 H(1)   Bbb    -0.1053   -56.186   -20.048   -18.742  0.7668  0.2969  0.5691
              Bcc     0.2112   112.689    40.210    37.589 -0.0054  0.8895 -0.4569
 
              Baa    -0.0339   -18.107    -6.461    -6.040  0.9869 -0.1582 -0.0315
     3 H(1)   Bbb    -0.0081    -4.325    -1.543    -1.443  0.1531  0.9801 -0.1261
              Bcc     0.0420    22.431     8.004     7.482  0.0508  0.1197  0.9915
 
              Baa    -0.2100    15.193     5.421     5.068 -0.5653  0.4454  0.6943
     4 O(17)  Bbb    -0.1826    13.211     4.714     4.407  0.8234  0.3552  0.4426
              Bcc     0.3925   -28.404   -10.135    -9.475 -0.0495  0.8218 -0.5676
 
              Baa    -0.0148    -7.904    -2.820    -2.636 -0.2900  0.1536  0.9446
     5 H(1)   Bbb    -0.0071    -3.770    -1.345    -1.257  0.0765  0.9876 -0.1371
              Bcc     0.0219    11.673     4.165     3.894  0.9540 -0.0326  0.2982
 
              Baa    -0.0175    -9.353    -3.337    -3.120  0.0368  0.8827 -0.4685
     6 H(1)   Bbb     0.0087     4.660     1.663     1.554 -0.1142  0.4695  0.8755
              Bcc     0.0088     4.693     1.675     1.565  0.9928  0.0213  0.1181
 
              Baa    -0.0123    -1.645    -0.587    -0.549 -0.4699  0.5814  0.6642
     7 C(13)  Bbb    -0.0104    -1.398    -0.499    -0.466  0.4084 -0.5239  0.7475
              Bcc     0.0227     3.043     1.086     1.015  0.7826  0.6225  0.0087
 
              Baa    -0.0077    -4.110    -1.466    -1.371 -0.0255  0.4697  0.8825
     8 H(1)   Bbb    -0.0036    -1.910    -0.682    -0.637 -0.2591  0.8495 -0.4596
              Bcc     0.0113     6.019     2.148     2.008  0.9655  0.2404 -0.1000
 
              Baa    -0.0078    -4.170    -1.488    -1.391  0.7118 -0.2407 -0.6599
     9 H(1)   Bbb    -0.0039    -2.075    -0.740    -0.692 -0.2344  0.8042 -0.5461
              Bcc     0.0117     6.245     2.228     2.083  0.6621  0.5434  0.5160
 
              Baa    -0.0063    -3.386    -1.208    -1.129 -0.3948  0.4002  0.8270
    10 H(1)   Bbb    -0.0026    -1.372    -0.490    -0.458  0.6690 -0.4918  0.5573
              Bcc     0.0089     4.758     1.698     1.587  0.6298  0.7733 -0.0736
 

 ---------------------------------------------------------------------------------

 Calling FoFJK, ICntrl=      2127 FMM=F ISym2X=0 I1Cent= 0 IOpClX= 1 NMat=1 NMatS=1 NMatT=0.
 ***** Axes restored to original set *****
 -------------------------------------------------------------------
 Center     Atomic                   Forces (Hartrees/Bohr)
 Number     Number              X              Y              Z
 -------------------------------------------------------------------
      1        6          -0.006434928   -0.015810767   -0.019061269
      2        1          -0.000180304    0.003294092    0.002560455
      3        1           0.001624146    0.002084535    0.002331084
      4        8           0.001219256    0.002542458    0.003209729
      5        1           0.000728311    0.000594329    0.000215401
      6        1           0.000713863   -0.001311443   -0.000566265
      7        6           0.005833174    0.020797206    0.026178808
      8        1          -0.015900751   -0.005541128    0.000858110
      9        1           0.001738651    0.007520963   -0.014696429
     10        1           0.010658581   -0.014170245   -0.001029625
 -------------------------------------------------------------------
 Cartesian Forces:  Max     0.026178808 RMS     0.009545503

 GradGradGradGradGradGradGradGradGradGradGradGradGradGradGradGradGradGrad
 Berny optimization.
 FormGI is forming the generalized inverse of G from B-inverse, IUseBI=4.
 Internal  Forces:  Max     0.017730521 RMS     0.005683729
 Search for a local minimum.
 Step number   1 out of a maximum of   46
 All quantities printed in internal units (Hartrees-Bohrs-Radians)
 Mixed Optimization -- RFO/linear search
 Second derivative matrix not updated -- first step.
 ITU=  0
     Eigenvalues ---    0.00230   0.00230   0.00237   0.01976   0.04823
     Eigenvalues ---    0.05720   0.05720   0.06284   0.11236   0.13887
     Eigenvalues ---    0.16000   0.16000   0.16000   0.16000   0.21880
     Eigenvalues ---    0.28519   0.33941   0.37230   0.37230   0.37230
     Eigenvalues ---    0.49376   0.545961000.000001000.000001000.00000
     Eigenvalues --- 1000.000001000.000001000.000001000.000001000.00000
     Eigenvalues --- 1000.000001000.000001000.000001000.000001000.00000
     Eigenvalues --- 1000.00000
 RFO step:  Lambda=-3.87020597D-03 EMin= 2.30000000D-03
 Linear search not attempted -- first point.
 Iteration  1 RMS(Cart)=  0.04889393 RMS(Int)=  0.00568796
 Iteration  2 RMS(Cart)=  0.00757175 RMS(Int)=  0.00018843
 Iteration  3 RMS(Cart)=  0.00008823 RMS(Int)=  0.00017056
 Iteration  4 RMS(Cart)=  0.00000002 RMS(Int)=  0.00017056
 Iteration  1 RMS(Cart)=  0.00000000 RMS(Int)=  0.00000000
 Variable       Old X    -DE/DX   Delta X   Delta X   Delta X     New X
                                 (Linear)    (Quad)   (Total)
    R1        2.44374   0.00100   0.00000   0.00000  -0.00000   2.44374
    R2        2.07430   0.00089   0.00000   0.00260   0.00260   2.07690
    R3        2.60501   0.00245   0.00000   0.00493   0.00493   2.60994
    R4        2.91018  -0.01436   0.00000  -0.04966  -0.04966   2.86052
    R5        1.91580  -0.00142   0.00000   0.00000   0.00000   1.91580
    R6        1.82193   0.00068   0.00000   0.00123   0.00123   1.82316
    R7        2.02201   0.01683   0.00000   0.04475   0.04475   2.06676
    R8        2.02201   0.01657   0.00000   0.04406   0.04406   2.06607
    R9        2.02201   0.01773   0.00000   0.04713   0.04713   2.06914
    A1        1.81474  -0.00076   0.00000  -0.01167  -0.01214   1.80260
    A2        1.93831  -0.00264   0.00000  -0.02017  -0.02049   1.91782
    A3        1.82057   0.00098   0.00000   0.01342   0.01348   1.83406
    A4        2.01074  -0.00396   0.00000  -0.02482  -0.02523   1.98551
    A5        1.96048   0.00172   0.00000   0.02037   0.02040   1.98088
    A6        1.90793   0.00469   0.00000   0.02363   0.02357   1.93150
    A7        1.89948   0.00122   0.00000   0.00744   0.00744   1.90692
    A8        1.91063   0.00103   0.00000   0.00740   0.00737   1.91800
    A9        1.91063   0.00052   0.00000   0.00207   0.00206   1.91270
   A10        1.91063   0.00109   0.00000   0.00667   0.00665   1.91728
   A11        1.91063  -0.00077   0.00000  -0.00470  -0.00471   1.90592
   A12        1.91063  -0.00080   0.00000  -0.00267  -0.00272   1.90792
   A13        1.91063  -0.00107   0.00000  -0.00876  -0.00876   1.90188
   A14        3.15301  -0.00136   0.00000  -0.21967  -0.21967   2.93334
   A15        3.16935  -0.00023   0.00000  -0.03746  -0.03746   3.13189
    D1        1.24175  -0.00278   0.00000  -0.02563  -0.02515   1.21659
    D2       -0.81526   0.00287   0.00000   0.02136   0.02083  -0.79443
    D3       -3.04201  -0.00035   0.00000  -0.00693  -0.00688  -3.04889
    D4       -1.05426  -0.00001   0.00000   0.01607   0.01612  -1.03815
    D5        1.04013  -0.00001   0.00000   0.01610   0.01614   1.05628
    D6        3.13453  -0.00034   0.00000   0.01072   0.01075  -3.13790
    D7        0.90011   0.00039   0.00000   0.01875   0.01868   0.91879
    D8        2.99450   0.00039   0.00000   0.01878   0.01870   3.01321
    D9       -1.19429   0.00006   0.00000   0.01340   0.01331  -1.18097
   D10       -3.12838   0.00027   0.00000   0.02087   0.02092  -3.10746
   D11       -1.03398   0.00027   0.00000   0.02090   0.02094  -1.01304
   D12        1.06041  -0.00006   0.00000   0.01552   0.01555   1.07596
         Item               Value     Threshold  Converged?
 Maximum Force            0.017731     0.002500     NO 
 RMS     Force            0.005841     0.001667     NO 
 Maximum Displacement     0.219084     0.010000     NO 
 RMS     Displacement     0.054549     0.006667     NO 
 Predicted change in Energy=-2.057063D-03
 GradGradGradGradGradGradGradGradGradGradGradGradGradGradGradGradGradGrad

                          Input orientation:                          
 ---------------------------------------------------------------------
 Center     Atomic      Atomic             Coordinates (Angstroms)
 Number     Number       Type             X           Y           Z
 ---------------------------------------------------------------------
      1          6           0       -0.468278   -0.337530    0.044025
      2          1           0       -1.303606    0.648579   -0.001920
      3          1           0       -0.661852   -0.786764    1.028212
      4          8           0        0.821513    0.131909   -0.109454
      5          1           0        1.074394    0.630407    0.676893
      6          1           0       -1.979540    1.365604   -0.240192
      7          6           0       -0.852165   -1.233262   -1.114267
      8          1           0       -1.886312   -1.569580   -0.997788
      9          1           0       -0.757485   -0.680032   -2.052515
     10          1           0       -0.189467   -2.104300   -1.146240
 ---------------------------------------------------------------------
                    Distance matrix (angstroms):
                    1          2          3          4          5
     1  C    0.000000
     2  H    1.293172   0.000000
     3  H    1.099047   1.879688   0.000000
     4  O    1.381119   2.189667   2.082934   0.000000
     5  H    1.928020   2.473054   2.268556   0.964776   0.000000
     6  H    2.294636   1.013797   2.824506   3.063493   3.272318
     7  C    1.513720   2.232138   2.196769   2.382129   3.223840
     8  H    2.148056   2.500306   2.493347   3.319114   4.050961
     9  H    2.143929   2.503677   3.084058   2.632104   3.538743
    10  H    2.148475   3.182627   2.585980   2.664139   3.521333
                    6          7          8          9         10
     6  H    0.000000
     7  C    2.964639   0.000000
     8  H    3.032812   1.093680   0.000000
     9  H    2.993753   1.093315   1.782693   0.000000
    10  H    4.008181   1.094942   1.785286   1.781156   0.000000
 Stoichiometry    C2H7O(2)
 Framework group  C1[X(C2H7O)]
 Deg. of freedom    24
 Full point group                 C1      NOp   1
 Largest Abelian subgroup         C1      NOp   1
 Largest concise Abelian subgroup C1      NOp   1
                         Standard orientation:                         
 ---------------------------------------------------------------------
 Center     Atomic      Atomic             Coordinates (Angstroms)
 Number     Number       Type             X           Y           Z
 ---------------------------------------------------------------------
      1          6           0        0.099889    0.331970    0.315508
      2          1           0        0.095535    1.505572   -0.227568
      3          1           0        0.184249    0.550919    1.389217
      4          8           0        1.149704   -0.413158   -0.184653
      5          1           0        1.981665   -0.050527    0.142659
      6          1           0       -0.051121    2.340942   -0.782937
      7          6           0       -1.226373   -0.286293   -0.071953
      8          1           0       -2.048114    0.331913    0.300469
      9          1           0       -1.293985   -0.356273   -1.160929
     10          1           0       -1.306963   -1.291345    0.354983
 ---------------------------------------------------------------------
 Rotational constants (GHZ):          24.2718783           8.9134777           7.6664927
 Standard basis: 6-31G(d) (5D, 7F)
 There are    59 symmetry adapted cartesian basis functions of A   symmetry.
 There are    56 symmetry adapted basis functions of A   symmetry.
    56 basis functions,   112 primitive gaussians,    59 cartesian basis functions
    14 alpha electrons       13 beta electrons
       nuclear repulsion energy        86.8715780842 Hartrees.
 NAtoms=   10 NActive=   10 NUniq=   10 SFac= 1.00D+00 NAtFMM=   60 NAOKFM=F Big=F
 Integral buffers will be    131072 words long.
 Raffenetti 2 integral format.
 Two-electron integral symmetry is turned on.
 Nuclear repulsion after empirical dispersion term =       86.8684389131 Hartrees.
 One-electron integrals computed using PRISM.
 NBasis=    56 RedAO= T EigKep=  6.92D-03  NBF=    56
 NBsUse=    56 1.00D-06 EigRej= -1.00D+00 NBFU=    56
 Initial guess from the checkpoint file:  "calc.chk"
 B after Tr=     0.000000    0.000000   -0.000000
         Rot=    0.999869   -0.006898   -0.002306   -0.014446 Ang=  -1.85 deg.
 Initial guess <Sx>= 0.0000 <Sy>= 0.0000 <Sz>= 0.5000 <S**2>= 0.7577 S= 0.5039
 ExpMin= 1.61D-01 ExpMax= 5.48D+03 ExpMxC= 8.25D+02 IAcc=2 IRadAn=         4 AccDes= 0.00D+00
 Harris functional with IExCor= 4639 and IRadAn=       4 diagonalized for initial guess.
 HarFok:  IExCor= 4639 AccDes= 0.00D+00 IRadAn=         4 IDoV= 1 UseB2=F ITyADJ=14
 ICtDFT=  3500011 ScaDFX=  1.000000  1.000000  1.000000  1.000000
 FoFCou: FMM=F IPFlag=           0 FMFlag=      100000 FMFlg1=           0
         NFxFlg=           0 DoJE=T BraDBF=F KetDBF=T FulRan=T
         wScrn=  0.000000 ICntrl=       500 IOpCl=  0 I1Cent=   200000004 NGrid=           0
         NMat0=    1 NMatS0=      1 NMatT0=    0 NMatD0=    1 NMtDS0=    0 NMtDT0=    0
 Petite list used in FoFCou.
 Keep R1 and R2 ints in memory in canonical form, NReq=6858140.
 Requested convergence on RMS density matrix=1.00D-08 within 100 cycles.
 Requested convergence on MAX density matrix=1.00D-06.
 Requested convergence on             energy=1.00D-06.
 No special actions if energy rises.
 Integral accuracy reduced to 1.0D-05 until final iterations.
 Initial convergence to 1.0D-05 achieved.  Increase integral accuracy.
 SCF Done:  E(UwB97XD) =  -155.472442629     A.U. after   14 cycles
            NFock= 14  Conv=0.90D-08     -V/T= 2.0059
 <Sx>= 0.0000 <Sy>= 0.0000 <Sz>= 0.5000 <S**2>= 0.7577 S= 0.5038
 <L.S>= 0.000000000000E+00
 Annihilation of the first spin contaminant:
 S**2 before annihilation     0.7577,   after     0.7500
 QCSCF skips out because SCF is already converged.
 Calling FoFJK, ICntrl=      2127 FMM=F ISym2X=0 I1Cent= 0 IOpClX= 1 NMat=1 NMatS=1 NMatT=0.
 ***** Axes restored to original set *****
 -------------------------------------------------------------------
 Center     Atomic                   Forces (Hartrees/Bohr)
 Number     Number              X              Y              Z
 -------------------------------------------------------------------
      1        6          -0.001136189   -0.004687418   -0.001280374
      2        1          -0.002805411    0.001171429   -0.004097483
      3        1          -0.000060520    0.000358492    0.000599112
      4        8           0.001933377    0.001008506   -0.000311455
      5        1          -0.000666122   -0.000387154   -0.000326497
      6        1           0.001122440    0.000018685    0.002507115
      7        6           0.002135645    0.004095976    0.005525660
      8        1           0.000062703   -0.000157161   -0.000636861
      9        1          -0.000151706   -0.000664266   -0.000858264
     10        1          -0.000434217   -0.000757088   -0.001120953
 -------------------------------------------------------------------
 Cartesian Forces:  Max     0.005525660 RMS     0.002000397

 GradGradGradGradGradGradGradGradGradGradGradGradGradGradGradGradGradGrad
 Berny optimization.
 Using GEDIIS/GDIIS optimizer.
 FormGI is forming the generalized inverse of G from B-inverse, IUseBI=4.
 Internal  Forces:  Max     0.004570303 RMS     0.001254309
 Search for a local minimum.
 Step number   2 out of a maximum of   46
 All quantities printed in internal units (Hartrees-Bohrs-Radians)
 Mixed Optimization -- RFO/linear search
 Update second derivatives using D2CorX and points    1    2
 DE= -1.57D-03 DEPred=-2.06D-03 R= 7.64D-01
 TightC=F SS=  1.41D+00  RLast= 2.54D-01 DXNew= 5.0454D-01 7.6302D-01
 Trust test= 7.64D-01 RLast= 2.54D-01 DXMaxT set to 5.05D-01
 ITU=  1  0
 Use linear search instead of GDIIS.
     Eigenvalues ---    0.00230   0.00235   0.00413   0.01976   0.04604
     Eigenvalues ---    0.05636   0.05690   0.06125   0.10894   0.13952
     Eigenvalues ---    0.15511   0.16000   0.16000   0.16061   0.21595
     Eigenvalues ---    0.23837   0.33885   0.35060   0.37230   0.37250
     Eigenvalues ---    0.49345   0.546271000.000001000.000001000.00000
     Eigenvalues --- 1000.000001000.000001000.000001000.000001000.00000
     Eigenvalues --- 1000.000001000.000001000.000001000.000001000.00000
     Eigenvalues --- 1000.00000
 RFO step:  Lambda=-3.48515249D-03 EMin= 2.29929652D-03
 Quartic linear search produced a step of -0.15638.
 Maximum step size (   0.505) exceeded in Quadratic search.
    -- Step size scaled by   0.782
 Iteration  1 RMS(Cart)=  0.06045287 RMS(Int)=  0.05547816
 Iteration  2 RMS(Cart)=  0.05123275 RMS(Int)=  0.02220146
 Iteration  3 RMS(Cart)=  0.03310743 RMS(Int)=  0.00211202
 Iteration  4 RMS(Cart)=  0.00208754 RMS(Int)=  0.00009802
 Iteration  5 RMS(Cart)=  0.00000194 RMS(Int)=  0.00009801
 Iteration  6 RMS(Cart)=  0.00000000 RMS(Int)=  0.00009801
 Iteration  1 RMS(Cart)=  0.00000000 RMS(Int)=  0.00000000
 Variable       Old X    -DE/DX   Delta X   Delta X   Delta X     New X
                                 (Linear)    (Quad)   (Total)
    R1        2.44374   0.00205   0.00000   0.00000   0.00000   2.44374
    R2        2.07690   0.00040  -0.00041   0.00337   0.00297   2.07986
    R3        2.60994   0.00147  -0.00077   0.00695   0.00618   2.61612
    R4        2.86052  -0.00413   0.00777  -0.05853  -0.05077   2.80975
    R5        1.91580  -0.00132   0.00000   0.00000   0.00000   1.91580
    R6        1.82316  -0.00064  -0.00019   0.00035   0.00015   1.82331
    R7        2.06676  -0.00008  -0.00700   0.04327   0.03627   2.10302
    R8        2.06607   0.00040  -0.00689   0.04353   0.03664   2.10270
    R9        2.06914   0.00037  -0.00737   0.04646   0.03909   2.10823
    A1        1.80260  -0.00032   0.00190  -0.01392  -0.01229   1.79032
    A2        1.91782  -0.00019   0.00320  -0.02224  -0.01917   1.89865
    A3        1.83406   0.00022  -0.00211   0.01306   0.01100   1.84506
    A4        1.98551  -0.00009   0.00395  -0.02405  -0.02036   1.96515
    A5        1.98088   0.00063  -0.00319   0.02317   0.01997   2.00085
    A6        1.93150  -0.00025  -0.00369   0.02209   0.01835   1.94985
    A7        1.90692  -0.00098  -0.00116   0.00276   0.00160   1.90852
    A8        1.91800   0.00037  -0.00115   0.00841   0.00722   1.92522
    A9        1.91270   0.00100  -0.00032   0.00630   0.00596   1.91865
   A10        1.91728   0.00169  -0.00104   0.01440   0.01330   1.93058
   A11        1.90592  -0.00084   0.00074  -0.00922  -0.00850   1.89742
   A12        1.90792  -0.00099   0.00042  -0.00673  -0.00638   1.90154
   A13        1.90188  -0.00128   0.00137  -0.01351  -0.01218   1.88970
   A14        2.93334   0.00457   0.03435   0.48857   0.52293   3.45627
   A15        3.13189   0.00058   0.00586   0.05754   0.06339   3.19528
    D1        1.21659  -0.00023   0.00393  -0.02474  -0.02054   1.19606
    D2       -0.79443   0.00036  -0.00326   0.02188   0.01832  -0.77611
    D3       -3.04889  -0.00022   0.00108  -0.00914  -0.00804  -3.05692
    D4       -1.03815   0.00006  -0.00252   0.01474   0.01224  -1.02590
    D5        1.05628  -0.00012  -0.00252   0.01253   0.01001   1.06629
    D6       -3.13790  -0.00002  -0.00168   0.00869   0.00701  -3.13090
    D7        0.91879   0.00011  -0.00292   0.01662   0.01366   0.93245
    D8        3.01321  -0.00008  -0.00293   0.01441   0.01143   3.02464
    D9       -1.18097   0.00002  -0.00208   0.01057   0.00843  -1.17254
   D10       -3.10746   0.00029  -0.00327   0.02225   0.01904  -3.08843
   D11       -1.01304   0.00011  -0.00328   0.02005   0.01681  -0.99623
   D12        1.07596   0.00021  -0.00243   0.01620   0.01380   1.08977
         Item               Value     Threshold  Converged?
 Maximum Force            0.004570     0.002500     NO 
 RMS     Force            0.001221     0.001667     YES
 Maximum Displacement     0.608312     0.010000     NO 
 RMS     Displacement     0.138505     0.006667     NO 
 Predicted change in Energy=-2.152776D-03
 GradGradGradGradGradGradGradGradGradGradGradGradGradGradGradGradGradGrad

                          Input orientation:                          
 ---------------------------------------------------------------------
 Center     Atomic      Atomic             Coordinates (Angstroms)
 Number     Number       Type             X           Y           Z
 ---------------------------------------------------------------------
      1          6           0       -0.497693   -0.339564   -0.015585
      2          1           0       -1.323819    0.648517   -0.131799
      3          1           0       -0.722826   -0.723056    0.991195
      4          8           0        0.794681    0.144836   -0.123555
      5          1           0        0.999272    0.684937    0.649350
      6          1           0       -1.882793    1.466897    0.081713
      7          6           0       -0.829319   -1.274168   -1.123412
      8          1           0       -1.888661   -1.605968   -1.044744
      9          1           0       -0.685909   -0.766933   -2.103336
     10          1           0       -0.165731   -2.170468   -1.093072
 ---------------------------------------------------------------------
                    Distance matrix (angstroms):
                    1          2          3          4          5
     1  C    0.000000
     2  H    1.293172   0.000000
     3  H    1.100617   1.871769   0.000000
     4  O    1.384388   2.177568   2.073338   0.000000
     5  H    1.932005   2.451178   2.250538   0.964856   0.000000
     6  H    2.278435   1.013797   2.639806   2.993133   3.039732
     7  C    1.486855   2.219131   2.187836   2.377111   3.213178
     8  H    2.144234   2.497042   2.506742   3.333801   4.056890
     9  H    2.139340   2.509459   3.095063   2.634958   3.539074
    10  H    2.150206   3.195604   2.597985   2.687561   3.542118
                    6          7          8          9         10
     6  H    0.000000
     7  C    3.174203   0.000000
     8  H    3.272834   1.112873   0.000000
     9  H    3.346187   1.112702   1.808648   0.000000
    10  H    4.190327   1.115627   1.813693   1.805859   0.000000
 Stoichiometry    C2H7O(2)
 Framework group  C1[X(C2H7O)]
 Deg. of freedom    24
 Full point group                 C1      NOp   1
 Largest Abelian subgroup         C1      NOp   1
 Largest concise Abelian subgroup C1      NOp   1
                         Standard orientation:                         
 ---------------------------------------------------------------------
 Center     Atomic      Atomic             Coordinates (Angstroms)
 Number     Number       Type             X           Y           Z
 ---------------------------------------------------------------------
      1          6           0        0.086527    0.338067    0.271080
      2          1           0        0.163723    1.458834   -0.369400
      3          1           0        0.195396    0.653407    1.319920
      4          8           0        1.117709   -0.485897   -0.146386
      5          1           0        1.958921   -0.124578    0.158180
      6          1           0        0.452952    2.388153   -0.653121
      7          6           0       -1.244376   -0.230079   -0.070453
      8          1           0       -2.052848    0.475016    0.225692
      9          1           0       -1.310466   -0.408909   -1.166699
     10          1           0       -1.402259   -1.202678    0.452755
 ---------------------------------------------------------------------
 Rotational constants (GHZ):          24.2305342           9.0321496           7.5920608
 Standard basis: 6-31G(d) (5D, 7F)
 There are    59 symmetry adapted cartesian basis functions of A   symmetry.
 There are    56 symmetry adapted basis functions of A   symmetry.
    56 basis functions,   112 primitive gaussians,    59 cartesian basis functions
    14 alpha electrons       13 beta electrons
       nuclear repulsion energy        86.8840773101 Hartrees.
 NAtoms=   10 NActive=   10 NUniq=   10 SFac= 1.00D+00 NAtFMM=   60 NAOKFM=F Big=F
 Integral buffers will be    131072 words long.
 Raffenetti 2 integral format.
 Two-electron integral symmetry is turned on.
 Nuclear repulsion after empirical dispersion term =       86.8809617719 Hartrees.
 One-electron integrals computed using PRISM.
 NBasis=    56 RedAO= T EigKep=  6.38D-03  NBF=    56
 NBsUse=    56 1.00D-06 EigRej= -1.00D+00 NBFU=    56
 Initial guess from the checkpoint file:  "calc.chk"
 B after Tr=    -0.000000   -0.000000   -0.000000
         Rot=    0.999162    0.018491    0.010126    0.035083 Ang=   4.69 deg.
 Initial guess <Sx>= 0.0000 <Sy>= 0.0000 <Sz>= 0.5000 <S**2>= 0.7579 S= 0.5039
 ExpMin= 1.61D-01 ExpMax= 5.48D+03 ExpMxC= 8.25D+02 IAcc=2 IRadAn=         4 AccDes= 0.00D+00
 Harris functional with IExCor= 4639 and IRadAn=       4 diagonalized for initial guess.
 HarFok:  IExCor= 4639 AccDes= 0.00D+00 IRadAn=         4 IDoV= 1 UseB2=F ITyADJ=14
 ICtDFT=  3500011 ScaDFX=  1.000000  1.000000  1.000000  1.000000
 FoFCou: FMM=F IPFlag=           0 FMFlag=      100000 FMFlg1=           0
         NFxFlg=           0 DoJE=T BraDBF=F KetDBF=T FulRan=T
         wScrn=  0.000000 ICntrl=       500 IOpCl=  0 I1Cent=   200000004 NGrid=           0
         NMat0=    1 NMatS0=      1 NMatT0=    0 NMatD0=    1 NMtDS0=    0 NMtDT0=    0
 Petite list used in FoFCou.
 Keep R1 and R2 ints in memory in canonical form, NReq=6858140.
 Requested convergence on RMS density matrix=1.00D-08 within 100 cycles.
 Requested convergence on MAX density matrix=1.00D-06.
 Requested convergence on             energy=1.00D-06.
 No special actions if energy rises.
 Integral accuracy reduced to 1.0D-05 until final iterations.
 Initial convergence to 1.0D-05 achieved.  Increase integral accuracy.
 SCF Done:  E(UwB97XD) =  -155.470450675     A.U. after   15 cycles
            NFock= 15  Conv=0.76D-08     -V/T= 2.0062
 <Sx>= 0.0000 <Sy>= 0.0000 <Sz>= 0.5000 <S**2>= 0.7577 S= 0.5038
 <L.S>= 0.000000000000E+00
 Annihilation of the first spin contaminant:
 S**2 before annihilation     0.7577,   after     0.7500
 QCSCF skips out because SCF is already converged.
 Calling FoFJK, ICntrl=      2127 FMM=F ISym2X=0 I1Cent= 0 IOpClX= 1 NMat=1 NMatS=1 NMatT=0.
 ***** Axes restored to original set *****
 -------------------------------------------------------------------
 Center     Atomic                   Forces (Hartrees/Bohr)
 Number     Number              X              Y              Z
 -------------------------------------------------------------------
      1        6           0.003467286    0.005034841    0.007709346
      2        1          -0.000679963    0.003568040    0.009656280
      3        1          -0.001604917   -0.000175052   -0.001704076
      4        8           0.001183373   -0.000543960   -0.002527586
      5        1          -0.001346228   -0.000497829   -0.000352337
      6        1          -0.000944369   -0.000201664   -0.004787027
      7        6          -0.002533371   -0.012699666   -0.015319820
      8        1           0.011593035    0.003204249   -0.001065747
      9        1          -0.001511343   -0.006296156    0.009610480
     10        1          -0.007623503    0.008607198   -0.001219514
 -------------------------------------------------------------------
 Cartesian Forces:  Max     0.015319820 RMS     0.005941504

 GradGradGradGradGradGradGradGradGradGradGradGradGradGradGradGradGradGrad
 Berny optimization.
 Using GEDIIS/GDIIS optimizer.
 FormGI is forming the generalized inverse of G from B-inverse, IUseBI=4.
 Internal  Forces:  Max     0.012066249 RMS     0.004290566
 Search for a local minimum.
 Step number   3 out of a maximum of   46
 All quantities printed in internal units (Hartrees-Bohrs-Radians)
 Mixed Optimization -- RFO/linear search
 Update second derivatives using D2CorX and points    1    3    2
 DE=  1.99D-03 DEPred=-2.15D-03 R=-9.25D-01
 Trust test=-9.25D-01 RLast= 5.38D-01 DXMaxT set to 2.52D-01
 ITU= -1  1  0
 Use linear search instead of GDIIS.
     Eigenvalues ---    0.00229   0.00237   0.01973   0.02597   0.04424
     Eigenvalues ---    0.05528   0.05611   0.06002   0.11154   0.14213
     Eigenvalues ---    0.15286   0.16000   0.16001   0.16021   0.21920
     Eigenvalues ---    0.27044   0.33945   0.36831   0.37232   0.37403
     Eigenvalues ---    0.49249   0.546041000.000001000.000001000.00000
     Eigenvalues --- 1000.000001000.000001000.000001000.000001000.00000
     Eigenvalues --- 1000.000001000.000001000.000001000.000001000.00000
     Eigenvalues --- 1000.00000
 RFO step:  Lambda=-2.20842385D-04 EMin= 2.29149520D-03
 Quartic linear search produced a step of -0.70897.
 Iteration  1 RMS(Cart)=  0.04942642 RMS(Int)=  0.02652284
 Iteration  2 RMS(Cart)=  0.03973048 RMS(Int)=  0.00302292
 Iteration  3 RMS(Cart)=  0.00294074 RMS(Int)=  0.00003241
 Iteration  4 RMS(Cart)=  0.00000290 RMS(Int)=  0.00003235
 Iteration  5 RMS(Cart)=  0.00000000 RMS(Int)=  0.00003235
 Iteration  1 RMS(Cart)=  0.00000000 RMS(Int)=  0.00000000
 Variable       Old X    -DE/DX   Delta X   Delta X   Delta X     New X
                                 (Linear)    (Quad)   (Total)
    R1        2.44374   0.00317   0.00000   0.00000   0.00000   2.44374
    R2        2.07986  -0.00117  -0.00210  -0.00015  -0.00225   2.07762
    R3        2.61612  -0.00029  -0.00438   0.00193  -0.00245   2.61367
    R4        2.80975   0.01053   0.03599  -0.00028   0.03571   2.84546
    R5        1.91580  -0.00065   0.00000   0.00000   0.00000   1.91580
    R6        1.82331  -0.00085  -0.00011  -0.00119  -0.00130   1.82201
    R7        2.10302  -0.01207  -0.02571  -0.00830  -0.03401   2.06901
    R8        2.10270  -0.01158  -0.02597  -0.00709  -0.03306   2.06964
    R9        2.10823  -0.01148  -0.02771  -0.00697  -0.03469   2.07354
    A1        1.79032  -0.00108   0.00871  -0.00505   0.00376   1.79408
    A2        1.89865   0.00022   0.01359  -0.00269   0.01094   1.90959
    A3        1.84506   0.00238  -0.00780   0.00484  -0.00296   1.84210
    A4        1.96515   0.00293   0.01443   0.00493   0.01945   1.98460
    A5        2.00085  -0.00080  -0.01416   0.00161  -0.01251   1.98834
    A6        1.94985  -0.00336  -0.01301  -0.00398  -0.01697   1.93289
    A7        1.90852  -0.00217  -0.00113  -0.00776  -0.00890   1.89962
    A8        1.92522  -0.00004  -0.00512   0.00111  -0.00397   1.92125
    A9        1.91865   0.00146  -0.00422   0.00694   0.00274   1.92139
   A10        1.93058   0.00157  -0.00943   0.01040   0.00100   1.93159
   A11        1.89742  -0.00069   0.00602  -0.00569   0.00034   1.89777
   A12        1.90154  -0.00104   0.00452  -0.00633  -0.00176   1.89978
   A13        1.88970  -0.00134   0.00863  -0.00695   0.00169   1.89139
   A14        3.45627  -0.00927  -0.37074   0.01594  -0.35479   3.10147
   A15        3.19528  -0.00011  -0.04494   0.12240   0.07745   3.27274
    D1        1.19606  -0.00036   0.01456  -0.00526   0.00921   1.20527
    D2       -0.77611  -0.00078  -0.01299  -0.00023  -0.01316  -0.78927
    D3       -3.05692   0.00075   0.00570  -0.00330   0.00242  -3.05451
    D4       -1.02590   0.00000  -0.00868   0.02658   0.01789  -1.00801
    D5        1.06629   0.00005  -0.00710   0.02464   0.01754   1.08383
    D6       -3.13090   0.00031  -0.00497   0.02699   0.02203  -3.10887
    D7        0.93245  -0.00024  -0.00969   0.02425   0.01456   0.94701
    D8        3.02464  -0.00019  -0.00811   0.02231   0.01421   3.03885
    D9       -1.17254   0.00007  -0.00598   0.02466   0.01870  -1.15385
   D10       -3.08843   0.00009  -0.01350   0.02902   0.01550  -3.07292
   D11       -0.99623   0.00014  -0.01191   0.02707   0.01515  -0.98108
   D12        1.08977   0.00040  -0.00978   0.02943   0.01964   1.10941
         Item               Value     Threshold  Converged?
 Maximum Force            0.012066     0.002500     NO 
 RMS     Force            0.004380     0.001667     NO 
 Maximum Displacement     0.390485     0.010000     NO 
 RMS     Displacement     0.086118     0.006667     NO 
 Predicted change in Energy=-5.164358D-04
 GradGradGradGradGradGradGradGradGradGradGradGradGradGradGradGradGradGrad

                          Input orientation:                          
 ---------------------------------------------------------------------
 Center     Atomic      Atomic             Coordinates (Angstroms)
 Number     Number       Type             X           Y           Z
 ---------------------------------------------------------------------
      1          6           0       -0.482913   -0.346557    0.027574
      2          1           0       -1.331887    0.627491   -0.025011
      3          1           0       -0.674163   -0.782968    1.018386
      4          8           0        0.798463    0.151899   -0.122645
      5          1           0        1.027052    0.664487    0.661332
      6          1           0       -1.911510    1.453227   -0.124923
      7          6           0       -0.839633   -1.255090   -1.118992
      8          1           0       -1.878628   -1.587617   -1.025900
      9          1           0       -0.724143   -0.723942   -2.069792
     10          1           0       -0.185437   -2.135901   -1.133274
 ---------------------------------------------------------------------
                    Distance matrix (angstroms):
                    1          2          3          4          5
     1  C    0.000000
     2  H    1.293172   0.000000
     3  H    1.099427   1.873679   0.000000
     4  O    1.383094   2.184974   2.084360   0.000000
     5  H    1.924539   2.457037   2.262022   0.964167   0.000000
     6  H    2.302904   1.013797   2.799777   3.006229   3.142524
     7  C    1.505755   2.232313   2.195146   2.378169   3.215407
     8  H    2.144308   2.491467   2.505454   3.317921   4.044960
     9  H    2.144658   2.525244   3.089147   2.622367   3.528946
    10  H    2.153558   3.190444   2.588227   2.687650   3.540185
                    6          7          8          9         10
     6  H    0.000000
     7  C    3.077674   0.000000
     8  H    3.171683   1.094874   0.000000
     9  H    3.151575   1.095207   1.780023   0.000000
    10  H    4.108278   1.097271   1.782986   1.777892   0.000000
 Stoichiometry    C2H7O(2)
 Framework group  C1[X(C2H7O)]
 Deg. of freedom    24
 Full point group                 C1      NOp   1
 Largest Abelian subgroup         C1      NOp   1
 Largest concise Abelian subgroup C1      NOp   1
                         Standard orientation:                         
 ---------------------------------------------------------------------
 Center     Atomic      Atomic             Coordinates (Angstroms)
 Number     Number       Type             X           Y           Z
 ---------------------------------------------------------------------
      1          6           0        0.096110    0.329791    0.310969
      2          1           0        0.141626    1.496548   -0.244817
      3          1           0        0.184773    0.566220    1.381006
      4          8           0        1.129901   -0.450849   -0.173619
      5          1           0        1.965537   -0.100312    0.155705
      6          1           0        0.240927    2.358500   -0.769187
      7          6           0       -1.237872   -0.250524   -0.077649
      8          1           0       -2.045787    0.411533    0.250533
      9          1           0       -1.296145   -0.364158   -1.165384
     10          1           0       -1.379564   -1.237139    0.381174
 ---------------------------------------------------------------------
 Rotational constants (GHZ):          24.1462248           8.9498881           7.6570125
 Standard basis: 6-31G(d) (5D, 7F)
 There are    59 symmetry adapted cartesian basis functions of A   symmetry.
 There are    56 symmetry adapted basis functions of A   symmetry.
    56 basis functions,   112 primitive gaussians,    59 cartesian basis functions
    14 alpha electrons       13 beta electrons
       nuclear repulsion energy        86.8893360577 Hartrees.
 NAtoms=   10 NActive=   10 NUniq=   10 SFac= 1.00D+00 NAtFMM=   60 NAOKFM=F Big=F
 Integral buffers will be    131072 words long.
 Raffenetti 2 integral format.
 Two-electron integral symmetry is turned on.
 Nuclear repulsion after empirical dispersion term =       86.8862258050 Hartrees.
 One-electron integrals computed using PRISM.
 NBasis=    56 RedAO= T EigKep=  6.77D-03  NBF=    56
 NBsUse=    56 1.00D-06 EigRej= -1.00D+00 NBFU=    56
 Lowest energy guess from the checkpoint file:  "calc.chk"
 B after Tr=    -0.000000   -0.000000   -0.000000
         Rot=    0.999740    0.004954    0.006525    0.021266 Ang=   2.61 deg.
 B after Tr=    -0.000000    0.000000    0.000000
         Rot=    0.999807   -0.013431   -0.003800   -0.013818 Ang=  -2.25 deg.
 Initial guess <Sx>= 0.0000 <Sy>= 0.0000 <Sz>= 0.5000 <S**2>= 0.7576 S= 0.5038
 Keep R1 and R2 ints in memory in canonical form, NReq=6858140.
 Requested convergence on RMS density matrix=1.00D-08 within 100 cycles.
 Requested convergence on MAX density matrix=1.00D-06.
 Requested convergence on             energy=1.00D-06.
 No special actions if energy rises.
 Integral accuracy reduced to 1.0D-05 until final iterations.
 Initial convergence to 1.0D-05 achieved.  Increase integral accuracy.
 SCF Done:  E(UwB97XD) =  -155.472838664     A.U. after   13 cycles
            NFock= 13  Conv=0.55D-08     -V/T= 2.0059
 <Sx>= 0.0000 <Sy>= 0.0000 <Sz>= 0.5000 <S**2>= 0.7577 S= 0.5038
 <L.S>= 0.000000000000E+00
 Annihilation of the first spin contaminant:
 S**2 before annihilation     0.7577,   after     0.7500
 QCSCF skips out because SCF is already converged.
 Calling FoFJK, ICntrl=      2127 FMM=F ISym2X=0 I1Cent= 0 IOpClX= 1 NMat=1 NMatS=1 NMatT=0.
 ***** Axes restored to original set *****
 -------------------------------------------------------------------
 Center     Atomic                   Forces (Hartrees/Bohr)
 Number     Number              X              Y              Z
 -------------------------------------------------------------------
      1        6           0.000235794   -0.002992886   -0.000506216
      2        1          -0.000485476    0.004615420   -0.000624757
      3        1           0.000045618    0.000083160   -0.000001309
      4        8          -0.000098525    0.000188981    0.000139329
      5        1           0.000099814    0.000226355    0.000063925
      6        1           0.000141050   -0.002167670    0.000481541
      7        6           0.000043217   -0.000130213    0.000120985
      8        1           0.000611726   -0.000004067   -0.000206176
      9        1          -0.000040500   -0.000324635    0.000671639
     10        1          -0.000552718    0.000505554   -0.000138962
 -------------------------------------------------------------------
 Cartesian Forces:  Max     0.004615420 RMS     0.001123621

 GradGradGradGradGradGradGradGradGradGradGradGradGradGradGradGradGradGrad
 Berny optimization.
 Using GEDIIS/GDIIS optimizer.
 FormGI is forming the generalized inverse of G from B-inverse, IUseBI=4.
 Internal  Forces:  Max     0.002101539 RMS     0.000639133
 Search for a local minimum.
 Step number   4 out of a maximum of   46
 All quantities printed in internal units (Hartrees-Bohrs-Radians)
 Mixed Optimization -- En-DIIS/RFO-DIIS
 Update second derivatives using D2CorX and points    1    3    2    4
 DE= -3.96D-04 DEPred=-5.16D-04 R= 7.67D-01
 TightC=F SS=  1.41D+00  RLast= 2.40D-01 DXNew= 4.2426D-01 7.1909D-01
 Trust test= 7.67D-01 RLast= 2.40D-01 DXMaxT set to 4.24D-01
 ITU=  1 -1  1  0
 Use linear search instead of GDIIS.
     Eigenvalues ---    0.00210   0.00562   0.01955   0.02411   0.04504
     Eigenvalues ---    0.05539   0.05599   0.06093   0.09963   0.14084
     Eigenvalues ---    0.14567   0.16000   0.16002   0.16110   0.22013
     Eigenvalues ---    0.26323   0.33946   0.37181   0.37236   0.38087
     Eigenvalues ---    0.49066   0.546231000.000001000.000001000.00000
     Eigenvalues --- 1000.000001000.000001000.000001000.000001000.00000
     Eigenvalues --- 1000.000001000.000001000.000001000.000001000.00000
     Eigenvalues --- 1000.00000
 RFO step:  Lambda=-6.55263483D-04 EMin= 2.10370135D-03
 Quartic linear search produced a step of -0.17696.
 Iteration  1 RMS(Cart)=  0.05294805 RMS(Int)=  0.02084797
 Iteration  2 RMS(Cart)=  0.02476474 RMS(Int)=  0.00136052
 Iteration  3 RMS(Cart)=  0.00150089 RMS(Int)=  0.00003397
 Iteration  4 RMS(Cart)=  0.00000397 RMS(Int)=  0.00003384
 Iteration  5 RMS(Cart)=  0.00000000 RMS(Int)=  0.00003384
 Iteration  1 RMS(Cart)=  0.00000000 RMS(Int)=  0.00000000
 Variable       Old X    -DE/DX   Delta X   Delta X   Delta X     New X
                                 (Linear)    (Quad)   (Total)
    R1        2.44374   0.00210  -0.00000   0.00000  -0.00000   2.44374
    R2        2.07762  -0.00004  -0.00013   0.00072   0.00059   2.07820
    R3        2.61367   0.00013  -0.00066   0.00530   0.00464   2.61831
    R4        2.84546  -0.00038   0.00266  -0.02005  -0.01739   2.82807
    R5        1.91580  -0.00189   0.00000   0.00000   0.00000   1.91580
    R6        1.82201   0.00020   0.00020  -0.00138  -0.00117   1.82084
    R7        2.06901  -0.00060  -0.00040   0.00094   0.00054   2.06956
    R8        2.06964  -0.00077  -0.00063   0.00246   0.00183   2.07147
    R9        2.07354  -0.00073  -0.00078   0.00375   0.00298   2.07652
    A1        1.79408  -0.00008   0.00151  -0.01277  -0.01134   1.78274
    A2        1.90959  -0.00055   0.00146  -0.01512  -0.01368   1.89591
    A3        1.84210   0.00047  -0.00142   0.01472   0.01330   1.85539
    A4        1.98460  -0.00013   0.00016  -0.00118  -0.00107   1.98353
    A5        1.98834  -0.00005  -0.00132   0.01048   0.00913   1.99746
    A6        1.93289   0.00032  -0.00025   0.00255   0.00229   1.93518
    A7        1.89962   0.00020   0.00129  -0.00967  -0.00837   1.89125
    A8        1.92125   0.00031  -0.00057   0.00593   0.00532   1.92657
    A9        1.92139  -0.00016  -0.00154   0.01160   0.01000   1.93139
   A10        1.93159   0.00025  -0.00253   0.02106   0.01845   1.95003
   A11        1.89777  -0.00006   0.00144  -0.01162  -0.01019   1.88758
   A12        1.89978  -0.00026   0.00144  -0.01260  -0.01122   1.88856
   A13        1.89139  -0.00008   0.00186  -0.01550  -0.01373   1.87766
   A14        3.10147   0.00029  -0.02975   0.12800   0.09825   3.19972
   A15        3.27274  -0.00193  -0.02492  -0.29959  -0.32451   2.94822
    D1        1.20527  -0.00039   0.00200  -0.02032  -0.01826   1.18701
    D2       -0.78927   0.00014  -0.00091   0.00587   0.00491  -0.78436
    D3       -3.05451   0.00004   0.00099  -0.00993  -0.00894  -3.06345
    D4       -1.00801  -0.00012  -0.00533   0.03466   0.02933  -0.97868
    D5        1.08383  -0.00010  -0.00488   0.03135   0.02644   1.11027
    D6       -3.10887  -0.00015  -0.00514   0.03295   0.02781  -3.08105
    D7        0.94701   0.00003  -0.00499   0.03314   0.02816   0.97516
    D8        3.03885   0.00005  -0.00454   0.02982   0.02527   3.06412
    D9       -1.15385  -0.00000  -0.00480   0.03143   0.02664  -1.12721
   D10       -3.07292   0.00010  -0.00611   0.04277   0.03668  -3.03624
   D11       -0.98108   0.00011  -0.00566   0.03946   0.03379  -0.94729
   D12        1.10941   0.00006  -0.00592   0.04106   0.03516   1.14457
         Item               Value     Threshold  Converged?
 Maximum Force            0.001928     0.002500     YES
 RMS     Force            0.000444     0.001667     YES
 Maximum Displacement     0.204646     0.010000     NO 
 RMS     Displacement     0.074256     0.006667     NO 
 Predicted change in Energy=-3.819507D-04
 GradGradGradGradGradGradGradGradGradGradGradGradGradGradGradGradGradGrad

                          Input orientation:                          
 ---------------------------------------------------------------------
 Center     Atomic      Atomic             Coordinates (Angstroms)
 Number     Number       Type             X           Y           Z
 ---------------------------------------------------------------------
      1          6           0       -0.470393   -0.331930    0.009806
      2          1           0       -1.280413    0.673262   -0.066013
      3          1           0       -0.690767   -0.731667    1.010342
      4          8           0        0.827112    0.133794   -0.129213
      5          1           0        1.045239    0.660861    0.647345
      6          1           0       -2.019805    1.365840   -0.028327
      7          6           0       -0.831603   -1.248544   -1.116699
      8          1           0       -1.889221   -1.526717   -1.058000
      9          1           0       -0.660110   -0.760102   -2.082937
     10          1           0       -0.232840   -2.169767   -1.099549
 ---------------------------------------------------------------------
                    Distance matrix (angstroms):
                    1          2          3          4          5
     1  C    0.000000
     2  H    1.293172   0.000000
     3  H    1.099739   1.865489   0.000000
     4  O    1.385549   2.176392   2.086040   0.000000
     5  H    1.920737   2.432631   2.254909   0.963546   0.000000
     6  H    2.298816   1.013797   2.691600   3.103716   3.216834
     7  C    1.496552   2.235780   2.193468   2.374305   3.206278
     8  H    2.140280   2.488894   2.519213   3.316384   4.037915
     9  H    2.144504   2.550939   3.093562   2.613028   3.518777
    10  H    2.159802   3.201315   2.594122   2.715039   3.563366
                    6          7          8          9         10
     6  H    0.000000
     7  C    3.071056   0.000000
     8  H    3.073137   1.095162   0.000000
     9  H    3.254201   1.096176   1.774516   0.000000
    10  H    4.103813   1.098846   1.777312   1.771092   0.000000
 Stoichiometry    C2H7O(2)
 Framework group  C1[X(C2H7O)]
 Deg. of freedom    24
 Full point group                 C1      NOp   1
 Largest Abelian subgroup         C1      NOp   1
 Largest concise Abelian subgroup C1      NOp   1
                         Standard orientation:                         
 ---------------------------------------------------------------------
 Center     Atomic      Atomic             Coordinates (Angstroms)
 Number     Number       Type             X           Y           Z
 ---------------------------------------------------------------------
      1          6           0        0.093732    0.342184    0.282300
      2          1           0        0.143050    1.473788   -0.341664
      3          1           0        0.189625    0.652909    1.332861
      4          8           0        1.138848   -0.452858   -0.159726
      5          1           0        1.966196   -0.062250    0.142500
      6          1           0        0.103786    2.424401   -0.691776
      7          6           0       -1.226579   -0.271418   -0.064024
      8          1           0       -2.043526    0.411477    0.192166
      9          1           0       -1.284075   -0.485043   -1.137644
     10          1           0       -1.388759   -1.217010    0.471714
 ---------------------------------------------------------------------
 Rotational constants (GHZ):          23.9673422           9.0390697           7.5961967
 Standard basis: 6-31G(d) (5D, 7F)
 There are    59 symmetry adapted cartesian basis functions of A   symmetry.
 There are    56 symmetry adapted basis functions of A   symmetry.
    56 basis functions,   112 primitive gaussians,    59 cartesian basis functions
    14 alpha electrons       13 beta electrons
       nuclear repulsion energy        86.9134627860 Hartrees.
 NAtoms=   10 NActive=   10 NUniq=   10 SFac= 1.00D+00 NAtFMM=   60 NAOKFM=F Big=F
 Integral buffers will be    131072 words long.
 Raffenetti 2 integral format.
 Two-electron integral symmetry is turned on.
 Nuclear repulsion after empirical dispersion term =       86.9103644193 Hartrees.
 One-electron integrals computed using PRISM.
 NBasis=    56 RedAO= T EigKep=  6.50D-03  NBF=    56
 NBsUse=    56 1.00D-06 EigRej= -1.00D+00 NBFU=    56
 Initial guess from the checkpoint file:  "calc.chk"
 B after Tr=     0.000000    0.000000    0.000000
         Rot=    0.999852    0.014877   -0.001892   -0.008414 Ang=   1.97 deg.
 Initial guess <Sx>= 0.0000 <Sy>= 0.0000 <Sz>= 0.5000 <S**2>= 0.7577 S= 0.5039
 ExpMin= 1.61D-01 ExpMax= 5.48D+03 ExpMxC= 8.25D+02 IAcc=2 IRadAn=         4 AccDes= 0.00D+00
 Harris functional with IExCor= 4639 and IRadAn=       4 diagonalized for initial guess.
 HarFok:  IExCor= 4639 AccDes= 0.00D+00 IRadAn=         4 IDoV= 1 UseB2=F ITyADJ=14
 ICtDFT=  3500011 ScaDFX=  1.000000  1.000000  1.000000  1.000000
 FoFCou: FMM=F IPFlag=           0 FMFlag=      100000 FMFlg1=           0
         NFxFlg=           0 DoJE=T BraDBF=F KetDBF=T FulRan=T
         wScrn=  0.000000 ICntrl=       500 IOpCl=  0 I1Cent=   200000004 NGrid=           0
         NMat0=    1 NMatS0=      1 NMatT0=    0 NMatD0=    1 NMtDS0=    0 NMtDT0=    0
 Petite list used in FoFCou.
 Keep R1 and R2 ints in memory in canonical form, NReq=6858140.
 Requested convergence on RMS density matrix=1.00D-08 within 100 cycles.
 Requested convergence on MAX density matrix=1.00D-06.
 Requested convergence on             energy=1.00D-06.
 No special actions if energy rises.
 Integral accuracy reduced to 1.0D-05 until final iterations.
 Initial convergence to 1.0D-05 achieved.  Increase integral accuracy.
 SCF Done:  E(UwB97XD) =  -155.472312843     A.U. after   15 cycles
            NFock= 15  Conv=0.41D-08     -V/T= 2.0058
 <Sx>= 0.0000 <Sy>= 0.0000 <Sz>= 0.5000 <S**2>= 0.7577 S= 0.5038
 <L.S>= 0.000000000000E+00
 Annihilation of the first spin contaminant:
 S**2 before annihilation     0.7577,   after     0.7500
 QCSCF skips out because SCF is already converged.
 Calling FoFJK, ICntrl=      2127 FMM=F ISym2X=0 I1Cent= 0 IOpClX= 1 NMat=1 NMatS=1 NMatT=0.
 ***** Axes restored to original set *****
 -------------------------------------------------------------------
 Center     Atomic                   Forces (Hartrees/Bohr)
 Number     Number              X              Y              Z
 -------------------------------------------------------------------
      1        6           0.005123085    0.003041113    0.000921142
      2        1          -0.006606254   -0.000241671    0.002937087
      3        1           0.000009419   -0.000392686   -0.000764721
      4        8          -0.000005685   -0.001229843    0.000431890
      5        1           0.001028460    0.000601253    0.000464294
      6        1           0.002432802    0.000446485   -0.001861326
      7        6          -0.002274448   -0.004945413   -0.005826747
      8        1           0.000401492    0.000375207    0.000571459
      9        1           0.000087757    0.000660275    0.001710043
     10        1          -0.000196628    0.001685279    0.001416880
 -------------------------------------------------------------------
 Cartesian Forces:  Max     0.006606254 RMS     0.002413778

 GradGradGradGradGradGradGradGradGradGradGradGradGradGradGradGradGradGrad
 Berny optimization.
 Using GEDIIS/GDIIS optimizer.
 FormGI is forming the generalized inverse of G from B-inverse, IUseBI=4.
 Internal  Forces:  Max     0.003774853 RMS     0.001359392
 Search for a local minimum.
 Step number   5 out of a maximum of   46
 All quantities printed in internal units (Hartrees-Bohrs-Radians)
 Mixed Optimization -- RFO/linear search
 Update second derivatives using D2CorX and points    1    3    2    5    4
 DE=  5.26D-04 DEPred=-3.82D-04 R=-1.38D+00
 Trust test=-1.38D+00 RLast= 3.54D-01 DXMaxT set to 2.12D-01
 ITU= -1  1 -1  1  0
 Use linear search instead of GDIIS.
     Eigenvalues ---    0.00219   0.01650   0.01964   0.02557   0.04472
     Eigenvalues ---    0.05386   0.05502   0.06149   0.10164   0.13562
     Eigenvalues ---    0.14339   0.15963   0.16000   0.16002   0.21479
     Eigenvalues ---    0.26562   0.33621   0.33962   0.37215   0.37235
     Eigenvalues ---    0.48923   0.545651000.000001000.000001000.00000
     Eigenvalues --- 1000.000001000.000001000.000001000.000001000.00000
     Eigenvalues --- 1000.000001000.000001000.000001000.000001000.00000
     Eigenvalues --- 1000.00000
 RFO step:  Lambda=-3.00259917D-05 EMin= 2.19421914D-03
 Quartic linear search produced a step of -0.72478.
 Iteration  1 RMS(Cart)=  0.04976691 RMS(Int)=  0.00677558
 Iteration  2 RMS(Cart)=  0.00834058 RMS(Int)=  0.00013410
 Iteration  3 RMS(Cart)=  0.00014216 RMS(Int)=  0.00000993
 Iteration  4 RMS(Cart)=  0.00000004 RMS(Int)=  0.00000993
 Iteration  1 RMS(Cart)=  0.00000000 RMS(Int)=  0.00000000
 Variable       Old X    -DE/DX   Delta X   Delta X   Delta X     New X
                                 (Linear)    (Quad)   (Total)
    R1        2.44374   0.00280   0.00000   0.00000   0.00000   2.44374
    R2        2.07820  -0.00055  -0.00043  -0.00050  -0.00092   2.07728
    R3        2.61831   0.00066  -0.00336   0.00028  -0.00308   2.61523
    R4        2.82807   0.00341   0.01260   0.00301   0.01561   2.84368
    R5        1.91580  -0.00154   0.00000   0.00000   0.00000   1.91580
    R6        1.82084   0.00094   0.00085   0.00075   0.00160   1.82244
    R7        2.06956  -0.00045  -0.00039  -0.00146  -0.00185   2.06770
    R8        2.07147  -0.00125  -0.00133  -0.00242  -0.00375   2.06773
[...]
      3        1          -0.000016125    0.000005195   -0.000000410
      4        8           0.000085702    0.000067562   -0.000004712
      5        1          -0.000000615    0.000001039   -0.000009889
      6        1          -0.000167617    0.000201521   -0.000022910
      7        6          -0.000004103    0.000024226    0.000026297
      8        1          -0.000006608   -0.000007474   -0.000004915
      9        1          -0.000000810    0.000000488   -0.000012659
     10        1          -0.000002364   -0.000007522   -0.000013678
 -------------------------------------------------------------------
 Cartesian Forces:  Max     0.000724816 RMS     0.000195629
 FormGI is forming the generalized inverse of G from B-inverse, IUseBI=4.

 GradGradGradGradGradGradGradGradGradGradGradGradGradGradGradGradGradGrad
 Berny optimization.
 Internal  Forces:  Max     0.000827053 RMS     0.000146084
 Search for a saddle point.
 Step number   1 out of a maximum of    2
 All quantities printed in internal units (Hartrees-Bohrs-Radians)
 Swapping is turned off.
 Second derivative matrix not updated -- analytic derivatives used.
 ITU=  0
     Eigenvalues ---   -0.02221   0.00209   0.00464   0.01582   0.02382
     Eigenvalues ---    0.04125   0.04569   0.04582   0.05369   0.08736
     Eigenvalues ---    0.11552   0.13010   0.13963   0.14766   0.16369
     Eigenvalues ---    0.17155   0.23697   0.32156   0.32829   0.34415
     Eigenvalues ---    0.34940   0.35338   0.43365   0.53389
 Eigenvectors required to have negative eigenvalues:
                          R5        R1        D2        D8        D7
   1                   -0.77663   0.58264   0.09563  -0.07238  -0.07031
                          D9        A5        A1        A3        D12
   1                   -0.06979   0.06649  -0.06286  -0.06051   0.06003
 Angle between quadratic step and forces=  85.45 degrees.
 Linear search not attempted -- option 19 set.
 Iteration  1 RMS(Cart)=  0.00187263 RMS(Int)=  0.00000051
 Iteration  2 RMS(Cart)=  0.00000046 RMS(Int)=  0.00000018
 Variable       Old X    -DE/DX   Delta X   Delta X   Delta X     New X
                                 (Linear)    (Quad)   (Total)
    R1        2.38283   0.00083   0.00000  -0.00300  -0.00300   2.37982
    R2        2.07843   0.00000   0.00000   0.00003   0.00003   2.07846
    R3        2.62014   0.00010   0.00000   0.00071   0.00071   2.62085
    R4        2.84664   0.00000   0.00000   0.00025   0.00025   2.84689
    R5        1.98293   0.00026   0.00000   0.01312   0.01312   1.99605
    R6        1.82223  -0.00001   0.00000  -0.00002  -0.00002   1.82221
    R7        2.06735   0.00001   0.00000   0.00002   0.00002   2.06737
    R8        2.06740   0.00001   0.00000   0.00001   0.00001   2.06741
    R9        2.07074   0.00000   0.00000  -0.00003  -0.00003   2.07071
    A1        1.80018   0.00001   0.00000   0.00086   0.00086   1.80104
    A2        1.91417  -0.00002   0.00000   0.00019   0.00019   1.91436
    A3        1.85388  -0.00001   0.00000   0.00069   0.00069   1.85457
    A4        1.97867   0.00001   0.00000  -0.00035  -0.00035   1.97832
    A5        1.97963  -0.00000   0.00000  -0.00070  -0.00070   1.97892
    A6        1.92799   0.00002   0.00000  -0.00047  -0.00048   1.92752
    A7        1.89927   0.00001   0.00000  -0.00013  -0.00013   1.89914
    A8        1.92350   0.00001   0.00000   0.00009   0.00009   1.92359
    A9        1.92063   0.00000   0.00000   0.00007   0.00007   1.92070
   A10        1.93135   0.00002   0.00000  -0.00006  -0.00006   1.93129
   A11        1.89770  -0.00001   0.00000  -0.00002  -0.00002   1.89768
   A12        1.89868  -0.00001   0.00000  -0.00003  -0.00003   1.89865
   A13        1.89126  -0.00001   0.00000  -0.00005  -0.00005   1.89121
   A14        3.10965  -0.00001   0.00000  -0.00037  -0.00037   3.10928
   A15        3.16465  -0.00000   0.00000  -0.00021  -0.00021   3.16444
    D1        1.18492   0.00000   0.00000  -0.00149  -0.00149   1.18343
    D2       -0.81663   0.00001   0.00000  -0.00247  -0.00247  -0.81910
    D3       -3.06064  -0.00002   0.00000  -0.00082  -0.00082  -3.06146
    D4       -1.00087  -0.00001   0.00000  -0.00054  -0.00054  -1.00141
    D5        1.09184  -0.00001   0.00000  -0.00047  -0.00047   1.09137
    D6       -3.10166  -0.00001   0.00000  -0.00052  -0.00052  -3.10218
    D7        0.96417  -0.00001   0.00000   0.00054   0.00054   0.96471
    D8        3.05687  -0.00001   0.00000   0.00062   0.00062   3.05749
    D9       -1.13663  -0.00001   0.00000   0.00057   0.00057  -1.13606
   D10       -3.07552   0.00002   0.00000  -0.00091  -0.00091  -3.07643
   D11       -0.98282   0.00002   0.00000  -0.00084  -0.00084  -0.98365
   D12        1.10687   0.00002   0.00000  -0.00089  -0.00089   1.10598
         Item               Value     Threshold  Converged?
 Maximum Force            0.000827     0.002500     YES
 RMS     Force            0.000146     0.001667     YES
 Maximum Displacement     0.008433     0.010000     YES
 RMS     Displacement     0.001873     0.006667     YES
 Predicted change in Energy=-4.881039D-07
 Optimization completed.
    -- Stationary point found.
                           ----------------------------
                           !   Optimized Parameters   !
                           ! (Angstroms and Degrees)  !
 --------------------------                            --------------------------
 ! Name  Definition              Value          Derivative Info.                !
 --------------------------------------------------------------------------------
 ! R1    R(1,2)                  1.2609         -DE/DX =    0.0008              !
 ! R2    R(1,3)                  1.0999         -DE/DX =    0.0                 !
 ! R3    R(1,4)                  1.3865         -DE/DX =    0.0001              !
 ! R4    R(1,7)                  1.5064         -DE/DX =    0.0                 !
 ! R5    R(2,6)                  1.0493         -DE/DX =    0.0003              !
 ! R6    R(4,5)                  0.9643         -DE/DX =    0.0                 !
 ! R7    R(7,8)                  1.094          -DE/DX =    0.0                 !
 ! R8    R(7,9)                  1.094          -DE/DX =    0.0                 !
 ! R9    R(7,10)                 1.0958         -DE/DX =    0.0                 !
 ! A1    A(2,1,3)              103.143          -DE/DX =    0.0                 !
 ! A2    A(2,1,4)              109.674          -DE/DX =    0.0                 !
 ! A3    A(2,1,7)              106.2196         -DE/DX =    0.0                 !
 ! A4    A(3,1,4)              113.3696         -DE/DX =    0.0                 !
 ! A5    A(3,1,7)              113.4242         -DE/DX =    0.0                 !
 ! A6    A(4,1,7)              110.4657         -DE/DX =    0.0                 !
 ! A7    A(1,4,5)              108.8204         -DE/DX =    0.0                 !
 ! A8    A(1,7,8)              110.2085         -DE/DX =    0.0                 !
 ! A9    A(1,7,9)              110.0441         -DE/DX =    0.0                 !
 ! A10   A(1,7,10)             110.6584         -DE/DX =    0.0                 !
 ! A11   A(8,7,9)              108.7301         -DE/DX =    0.0                 !
 ! A12   A(8,7,10)             108.7863         -DE/DX =    0.0                 !
 ! A13   A(9,7,10)             108.361          -DE/DX =    0.0                 !
 ! A14   L(1,2,6,9,-1)         178.17           -DE/DX =    0.0                 !
 ! A15   L(1,2,6,9,-2)         181.3213         -DE/DX =    0.0                 !
 ! D1    D(2,1,4,5)             67.891          -DE/DX =    0.0                 !
 ! D2    D(3,1,4,5)            -46.7893         -DE/DX =    0.0                 !
 ! D3    D(7,1,4,5)           -175.3616         -DE/DX =    0.0                 !
 ! D4    D(2,1,7,8)            -57.3454         -DE/DX =    0.0                 !
 ! D5    D(2,1,7,9)             62.5577         -DE/DX =    0.0                 !
 ! D6    D(2,1,7,10)          -177.7121         -DE/DX =    0.0                 !
 ! D7    D(3,1,7,8)             55.2428         -DE/DX =    0.0                 !
 ! D8    D(3,1,7,9)            175.1459         -DE/DX =    0.0                 !
 ! D9    D(3,1,7,10)           -65.1239         -DE/DX =    0.0                 !
 ! D10   D(4,1,7,8)           -176.2145         -DE/DX =    0.0                 !
 ! D11   D(4,1,7,9)            -56.3114         -DE/DX =    0.0                 !
 ! D12   D(4,1,7,10)            63.4188         -DE/DX =    0.0                 !
 --------------------------------------------------------------------------------
 GradGradGradGradGradGradGradGradGradGradGradGradGradGradGradGradGradGrad


 ----------------------------------------------------------------------

 Electric dipole moment (input orientation):
 (Debye = 10**-18 statcoulomb cm , SI units = C m)
                  (au)            (Debye)         (10**-30 SI)
   Tot        0.579163D+00      0.147209D+01      0.491035D+01
   x          0.976593D-01      0.248225D+00      0.827990D+00
   y         -0.253226D+00     -0.643636D+00     -0.214694D+01
   z          0.511634D+00      0.130044D+01      0.433781D+01

 Dipole polarizability, Alpha (input orientation).
 (esu units = cm**3 , SI units = C**2 m**2 J**-1)
 Alpha(0;0):
               (au)            (10**-24 esu)      (10**-40 SI)
   iso        0.332253D+02      0.492348D+01      0.547811D+01
   aniso      0.185330D+02      0.274631D+01      0.305568D+01
   xx         0.364448D+02      0.540056D+01      0.600893D+01
   yx        -0.856296D+01     -0.126890D+01     -0.141184D+01
   yy         0.370005D+02      0.548291D+01      0.610056D+01
   zx         0.116585D+01      0.172761D+00      0.192223D+00
   zy         0.174234D+01      0.258187D+00      0.287272D+00
   zz         0.262306D+02      0.388698D+01      0.432485D+01

 ----------------------------------------------------------------------

 Dipole orientation:
     6         -0.93245483         -0.58549968          0.16138292
     1         -2.35973737          0.94390957         -0.97950895
     1         -1.64190975         -0.52721498          2.11410855
     8          1.55807119          0.19674703         -0.06333038
     1          1.77535259          1.74357233          0.87510431
     1         -3.51277903          2.19941061         -1.99254482
     6         -1.30061504         -3.10996077         -1.10151188
     1         -3.29210504         -3.66029665         -1.03057389
     1         -0.71092575         -3.00508900         -3.08025518
     1         -0.17166505         -4.56895011         -0.16087843

 Electric dipole moment (dipole orientation):
 (Debye = 10**-18 statcoulomb cm , SI units = C m)
                  (au)            (Debye)         (10**-30 SI)
   Tot        0.579163D+00      0.147209D+01      0.491035D+01
   x          0.000000D+00      0.000000D+00      0.000000D+00
   y          0.000000D+00      0.000000D+00      0.000000D+00
   z          0.579163D+00      0.147209D+01      0.491035D+01

 Dipole polarizability, Alpha (dipole orientation).
 (esu units = cm**3 , SI units = C**2 m**2 J**-1)
 Alpha(0;0):
               (au)            (10**-24 esu)      (10**-40 SI)
   iso        0.332253D+02      0.492348D+01      0.547811D+01
   aniso      0.185330D+02      0.274631D+01      0.305568D+01
   xx         0.350847D+02      0.519901D+01      0.578468D+01
   yx        -0.655799D+01     -0.971794D+00     -0.108127D+01
   yy         0.357473D+02      0.529721D+01      0.589394D+01
   zx         0.631283D+01      0.935465D+00      0.104085D+01
   zy        -0.413815D+01     -0.613210D+00     -0.682288D+00
   zz         0.288439D+02      0.427423D+01      0.475572D+01

 ----------------------------------------------------------------------
 1\1\GINC-COMPUTE-1-01\Freq\UwB97XD\6-31G(d)\C2H7O1(2)\UA25450\08-Nov-2
 018\0\\#N Geom=AllCheck Guess=TCheck SCRF=Check GenChk UwB97XD/6-31G(d
 ) Freq\\ni1182a\\0,2\C,-0.4837127522,-0.3350394125,0.0231787605\H,-1.2
 977170887,0.6265444935,-0.0289435096\H,-0.6780222103,-0.7738264993,1.0
 128221069\O,0.8104731353,0.1404740475,-0.1231115788\H,1.0394967138,0.6
 63310207,0.6540861344\H,-1.9630555128,1.4339932847,-0.109141122\C,-0.8
 405757655,-1.2507621489,-1.118429533\H,-1.8835873924,-1.5700936544,-1.
 0348974282\H,-0.707628605,-0.7308610314,-2.0717991521\H,-0.1984693422,
 -2.1387097863,-1.117009828\\Version=ES64L-G16RevA.03\State=2-A\HF=-155
 .472807\S2=0.757346\S2-1=0.\S2A=0.75001\RMSD=1.657e-09\RMSF=1.956e-04\
 ZeroPoint=0.0788837\Thermal=0.083866\Dipole=0.0976593,-0.2532258,0.511
 634\DipoleDeriv=1.2357508,-0.111664,0.0352529,0.0603758,0.628964,-0.01
 52671,-0.0341347,0.0562224,0.4513673,-0.2475039,0.1046656,-0.0033919,0
 .2389451,-0.2195582,-0.0215373,-0.0197333,0.0020721,-0.0277331,-0.0579
 449,-0.0069673,-0.0129168,0.0294701,-0.0990355,0.0849217,0.0538334,0.0
 455014,-0.1951765,-1.2406857,0.0170362,-0.0818303,-0.23993,-0.5144271,
 0.0739693,-0.0154728,0.0635013,-0.3423238,0.3376201,-0.0245411,0.03213
 13,-0.0219972,0.2990247,-0.0866114,0.0361367,-0.1150283,0.2029247,-0.0
 317927,-0.0409156,0.0011848,-0.0833598,-0.0222687,-0.001164,0.0143999,
 -0.013715,-0.0878145,0.0158931,0.0568241,0.003478,-0.0271626,-0.055945
 8,-0.0759432,-0.0887138,-0.022781,-0.0202573,-0.0989779,-0.0778964,0.0
 008227,-0.035999,0.0457379,-0.0137766,0.0353795,-0.0031425,0.0596035,0
 .0767631,-0.0101051,0.0275389,-0.0151112,0.0252458,0.0829471,0.0180006
 ,0.0368961,-0.0831369,0.0108782,0.0935636,-0.0022695,0.0947687,-0.0877
 372,-0.0275386,0.0003044,-0.0495266,0.0425466\Polar=36.4447544,-8.5629
 635,37.000518,1.1658522,1.7423354,26.2306291\Quadrupole=-1.3319423,-0.
 443204,1.7751463,2.2249489,1.6080672,1.2066905\PG=C01 [X(C2H7O1)]\NIma
 g=1\\0.44036454,0.13466325,0.37616090,-0.01789780,-0.00507578,0.598757
 00,0.00563732,-0.04109395,-0.00276036,0.02583259,-0.04489526,-0.001589
 33,0.00476718,0.04327021,0.01141896,0.00238340,-0.00025449,-0.04325271
 ,-0.00362997,0.00453965,0.05616796,-0.05245504,-0.01575005,0.02151580,
 -0.00054884,0.01026942,-0.01168654,0.06626756,-0.02379082,-0.08463996,
 0.09596504,0.00657167,-0.01518211,0.01748865,0.02629510,0.08971430,0.0
 3067727,0.08665909,-0.26303107,0.00142447,-0.00070681,-0.00164705,-0.0
 3896006,-0.09811536,0.27921024,-0.26006502,-0.08465233,0.05226649,-0.0
 4173714,0.00599690,0.00206924,-0.01962206,-0.00875268,0.00583562,0.391
 41827,-0.08295357,-0.08955523,0.00291310,0.01330220,0.00869039,-0.0025
 6400,-0.02291629,-0.00226510,0.00361598,0.17952055,0.24496736,0.010635
 56,-0.01136366,-0.10189401,0.00046752,-0.00048339,0.00351674,0.0343052
 8,0.00775594,0.00417049,0.04420520,0.23057263,0.44384909,-0.01553273,-
 0.02589987,-0.03908291,0.00048167,-0.00040276,-0.00042490,0.00108005,-
 0.00014961,0.00110542,-0.06031456,-0.05349102,-0.05362224,0.08118698,-
 0.00150956,-0.00850247,-0.01368416,0.00100774,0.00029704,0.00039935,0.
 00196069,-0.00023651,-0.00060270,-0.07849532,-0.15401367,-0.21172504,0
 .08222629,0.16243589,0.00727284,0.00689034,0.00255069,0.00204092,-0.00
 132282,-0.00009650,0.00112243,0.00122033,0.00134425,-0.10012347,-0.232
 70598,-0.35518448,0.08995458,0.22547624,0.34967229,-0.03623508,0.04930
 654,-0.00157749,0.00858955,-0.02508266,0.00178941,0.00140425,-0.002190
 57,-0.00106469,0.00614502,-0.00198298,0.00006169,-0.00012980,-0.000419
 69,-0.00043200,0.01913032,0.04976803,-0.05295562,0.00185667,-0.0257160
 0,0.01779198,-0.00215988,-0.00219788,0.00279154,0.00105922,-0.00345308
 ,0.00195264,-0.00038146,0.00034594,-0.00002484,0.00052173,-0.01686960,
 0.02620193,-0.00485125,0.00557289,0.00578987,0.00246055,-0.00293830,-0
 .01275965,0.00055807,-0.00113620,0.00031418,0.00028084,-0.00016855,-0.
 00010216,0.00001535,-0.00014966,-0.00018247,0.00154103,-0.00197739,0.0
 0629835,-0.07965986,-0.01363359,-0.00927549,0.00084617,0.01228796,0.00
 964969,0.00319892,0.00262708,0.00224798,-0.01779634,-0.03131988,-0.033
 98506,-0.00684434,-0.00478269,-0.00050266,0.00095274,-0.00127693,0.000
 26961,0.59461243,-0.02819045,-0.12562108,-0.06921631,0.00415867,-0.022
 22320,-0.01508240,0.00425476,0.01071445,0.01213865,-0.00944231,-0.0096
 1838,-0.01229325,-0.00163802,-0.00036692,0.00007044,-0.00314810,0.0039
 2125,-0.00007139,-0.00095407,0.55376292,-0.02510500,-0.06637575,-0.176
 83428,0.00189697,-0.00250882,-0.00071987,-0.00568234,-0.02141630,-0.01
 848659,-0.00245294,0.00013581,0.00683660,0.00285498,0.00103667,0.00109
 161,-0.00114299,0.00161578,0.00041850,-0.01779078,-0.03849024,0.543049
 73,-0.00676073,0.00036471,0.00309439,0.00022215,-0.00001747,-0.0000756
 6,0.00020953,0.00006742,-0.00054999,0.00052836,-0.00112385,-0.00225056
 ,-0.00009258,-0.00022100,0.00029759,0.00018712,-0.00036218,-0.00001981
 ,-0.29829152,-0.07661451,0.02029129,0.32181066,-0.01980498,-0.00572652
 ,0.00668725,-0.00002507,0.00002720,0.00044167,0.00046273,0.00045496,-0
 .00021530,-0.00090169,-0.00269063,-0.00496482,-0.00144694,-0.00012771,
 -0.00032085,0.00030427,0.00010062,0.00012771,-0.07456375,-0.07225799,0
 .00524523,0.08430578,0.07503098,-0.02571737,-0.00452653,0.00579459,0.0
 0007507,0.00022604,0.00045043,0.00040430,0.00102916,0.00012006,-0.0015
 6497,-0.00435683,-0.00521963,-0.00147423,-0.00112998,0.00031802,0.0001
 0023,-0.00001479,-0.00000705,0.02243286,0.00613794,-0.05256152,-0.0220
 7566,-0.00437434,0.05239271,0.00065401,0.00412452,-0.00673588,-0.00038
 804,-0.00003151,0.00045239,0.00042900,-0.00100970,-0.00124823,0.000351
 04,0.00057532,-0.00001829,0.00008501,-0.00001076,0.00029453,0.00003532
 ,-0.00011593,-0.00018499,-0.05438885,-0.01576239,0.02909903,-0.0015920
 8,-0.01470370,0.02858001,0.05205178,0.00366310,0.01140138,-0.02233451,
 0.00012591,0.00104823,0.00002022,-0.00173959,-0.00250192,-0.00374702,0
 .00118835,0.00092937,0.00191577,0.00045598,0.00009970,0.00006211,-0.00
 019823,0.00022589,0.00035396,-0.01659338,-0.11448142,0.11626840,0.0002
 6363,-0.00503022,0.00696119,0.01774894,0.12022543,0.00530419,0.0127987
 3,-0.02598199,-0.00073956,0.00117118,0.00062752,-0.00173756,-0.0039094
 3,-0.00282675,-0.00000641,0.00032890,0.00271394,0.00037399,0.00002773,
 0.00046396,0.00045168,-0.00054865,0.00010134,0.02848816,0.11399617,-0.
 25369862,-0.00019426,-0.00045643,-0.00003605,-0.03177496,-0.12255300,0
 .27743539,0.00405259,-0.00742922,0.00045325,0.00106457,-0.00139483,-0.
 00052705,0.00003664,0.00033212,0.00053220,0.00109244,0.00038952,0.0002
 0091,0.00008030,0.00024430,0.00007525,-0.00007942,-0.00012237,-0.00006
 939,-0.14262935,0.12733643,-0.00196822,-0.01622090,0.02637335,-0.00076
 024,0.00276281,-0.00491470,-0.00016526,0.14984031,0.01305027,-0.018972
 07,-0.00187850,-0.00160136,-0.00027915,-0.00282877,-0.00063889,0.00115
 035,-0.00008574,-0.00100839,0.00160326,0.00096729,0.,0.00043948,0.0001
 0846,0.00028104,-0.00000539,0.00038694,0.12820924,-0.22382964,0.004489
 22,-0.00666253,0.01021931,0.00004815,0.00918521,-0.01191645,-0.0008551
 9,-0.14081459,0.24159030,0.01729816,-0.02432484,-0.00189807,-0.0012356
 1,-0.00274391,-0.00228687,0.00016063,0.00111818,0.00083223,-0.00050961
 ,0.00222894,0.00131342,0.00029997,0.00035154,0.00002262,0.00027314,0.0
 0002877,0.00012910,-0.00153431,0.00281041,-0.04909556,0.00148268,-0.00
 217010,-0.00125157,-0.01846362,0.02305287,0.00120126,0.00222855,-0.000
 35186,0.05103346\\-0.00046544,0.00072482,-0.00006550,0.00035290,-0.000
 43978,0.00002262,0.00001612,-0.00000520,0.00000041,-0.00008570,-0.0000
 6756,0.00000471,0.00000061,-0.00000104,0.00000989,0.00016762,-0.000201
 52,0.00002291,0.00000410,-0.00002423,-0.00002630,0.00000661,0.00000747
 ,0.00000492,0.00000081,-0.00000049,0.00001266,0.00000236,0.00000752,0.
 00001368\\\@


 EDUCATION IS NOT TRAINING BUT RATHER THE PROCESS THAT EQUIPS YOU TO
 ENTERTAIN YOURSELF, A FRIEND, OR AN IDEA.  -- WALLACE STERLING
 Job cpu time:       0 days  0 hours  1 minutes  9.4 seconds.
 Elapsed time:       0 days  0 hours  0 minutes 35.5 seconds.
 File lengths (MBytes):  RWF=     88 Int=      0 D2E=      0 Chk=      2 Scr=      2
 Normal termination of Gaussian 16 at Thu Nov  8 14:21:37 2018.
