 
        ______________________________________
       |                                      |
       |           ==================         |
       |                 x T B                |
       |           ==================         |
       |               S. Grimme              |
       |        Universitaet Bonn, MCTC       |
       |         2015-18, Version 5.8.1       |
       |      Sun May  6 11:39:08 CEST 2018   |
       |______________________________________|
 
        This code comes without any warranty
        for non-commercial, academia use only.
        Preliminary GFN2 test version.
        Test license to: Dow Chemical Company
        Cite GFN-xTB work as:
        S. Grimme, C. Bannwarth, P. Shushkov
        JCTC, 13 (2017) 1989-2009
        for GFN2:
        C. Bannwarth, S. Ehlert, S. Grimme
        to be published.
        sTDA-xTB:
        S. Grimme  &  C. Bannwarth, JCP 145 (2016) 054103
        in the mass-spec context additionally:
        V. Asgeirsson, C.Bauer, S. Grimme, Chem. Sci. 8 (2017) 4879
 
        with help from
        P. Shushkov, G. Brandenburg, S. Dohm, J. Pisarek,
        F. März, M. Checinski, S. Ehrlich, S. Spicher, 
        P. Pracht, E. Caldeweyher, S. Ehlert, and C. Bannwarth.
 
        usage        :
        xtb <coord_file> [options]
        where <coord_file> is a valid file of TM)
        (*coord, Bohr) or xmol (*xyz, Angstroem)
        format.

        options:
        -chrg <int>   : molecular charge
        -uhf  <int>   : # of unpaired electrons(=2*S)
        -nox          : skip second, extended part in sTDA-xTB
        -pop          : do population analysis
                      : (default for -nox)
        -mowr <real>  : cut MO write above (def.3 Eh)
        -molden       : write formatted molden file
        -parx <file>  : read parameters for sTDA-xTB
                        calc (def:~/.param_stda2.xtb)
        -parv <file>  : read parameters for vTB part in
                        sTDA-xTB (def: ~/.param_stda1.xtb)
        -xtemp <real> : el. temp for xTB (def. 0 K)
        -etemp <real> : el. temp for GFN (def. 300 K)
        -fod          : calculate the FOD and write
                        molden.input file with
                        appropriate occupations
                        for plotting. Def. T=12500 K
 
        -gfn1         : use GFN-xTB
        -gfn2         : use GFN2-xTB
        -gfn2d3       : GFN2-xTB with D3 instead of D4
        -grad         : GFNn-xTB gradient
        -acc <real>   : GFNn-xTB accuracy (def. 1.0)
        -opt [level]  : optimize at GFNn-xTB
                      : level=crude,vloose,loose,
                      :       tight,vtight
        -hess         : compute Hessian at GFNn-xTB
        -ohess        : optimize and compute Hessian
        -omd          : optimize and do MD
        -siman        : conformational search
        -screen       : opt. loop over ensemble
        -gmd          : annealed MD for GMD procedure
        -modef        : vib mode following
        -gbsa [string1] [string2]
                        use GBSA implicit solvent
                        for solvent [string1] and
                        solvation state [string2]=
                        reference, bar1M (default=1M)
        additional GFN/opt/MD/siman options read from
        $XTBHOME/.xtbrc or $set in coordinate file
 
       spin and charge state information can be on:
       <.CHRG> (charge) and <.UHF> (=nalpha-nbeta)
       -uhf and -chrg override the file info.
       useful machine settings:
       setenv MKL_NUM_THREADS <NCORE_ON_YOUR_MACHINE>
       setenv OMP_STACKSIZE 500m
       limit stacksize unlimited
 
       total energies in Eh, gaps/HL energies in eV
       please read REVISION and HOWTO files carefully
          63  days left until this code expires
 =============================
  # OMP threads =           2
 =============================
 
 xtbhome directory:/home/ua25450/dftb/
 
 argument            1 :-ohess
 
 name of molecule           :
 comment line               :
 number of atoms            :    60
 number of electrons        :   240
 charge                     :  0
 spin                       : 0.0
 first test random number   :  0.3874
 
 
 -----------------------------------------
  G F N (Geometry, Frequency, Non-covalent)
        parametrization, gfnver=           3
     D4 dispersion model
 /home/ua25450/dftb/.param_gfn2.xtb
 -----------------------------------------
      method parameters     
 k(s)        :  1.8500
 k(p)        :  2.2300
 k(d)        :  2.2300
 k(f)        :  2.0000
 kEN (H0ij)  : -2.0000
 D3 a1       :  0.5200
 D3 a2       :  5.0000
 D3 s8       :  2.7000
 D3atm       :  5.0000
 alphaj      :  2.0000
 
     -------------------------
     ! NO SOLVENT MODEL USED !
     -------------------------
 
 doing EN charges ...
 sum q :  0.1332268D-14
 point charge moment (au)
     X       Y       Z   
  -0.0000   0.0000   0.0000  total (Debye):    0.000
 
            Z     q(EN)     CN     RAES       Cart. coordinates
     1  C   4.0   -0.00    3.65    3.20     4.20290    -0.53721     0.00000
     2  C   4.0    0.00    3.65    3.20     6.96925    -0.53721     0.00000
     3  C   4.0    0.00    3.65    3.20     8.27749     1.72894     0.00000
     4  C   4.0    0.00    3.65    3.20     6.89424     4.12466    -0.00004
     5  C   4.0    0.00    3.65    3.20     4.27760     4.12460     0.00001
     6  C   4.0   -0.00    3.65    3.20     2.89450     1.72881     0.00004
     7  C   4.0    0.00    3.65    3.20     3.34803    -2.62798    -1.59709
     8  C   4.0   -0.00    3.65    3.20     5.58600    -3.92008    -2.58422
     9  C   4.0    0.00    3.65    3.20     7.82412    -2.62790    -1.59717
    10  C   4.0   -0.00    3.65    3.20     9.94094    -2.33934    -3.10799
    11  C   4.0   -0.00    3.65    3.20    10.51541     2.03399    -1.59729
    12  C   4.0   -0.00    3.65    3.20     8.27731     5.91031    -1.59732
    13  C   4.0   -0.00    3.65    3.20     6.96885     7.59930    -3.10804
    14  C   4.0   -0.00    3.65    3.20     4.20250     7.59926    -3.10793
    15  C   4.0    0.00    3.65    3.20     2.89430     5.91021    -1.59711
    16  C   4.0   -0.00    3.65    3.20     0.65626     4.61800    -2.58411
    17  C   4.0   -0.00    3.65    3.20     0.65638     2.03377    -1.59701
    18  C   4.0    0.00    3.65    3.20    -0.15225     0.05617    -3.10767
    19  C   4.0   -0.00    3.65    3.20     1.23103    -2.33954    -3.10771
    20  C   4.0    0.00    3.65    3.20     5.58591    -4.85380    -5.02860
    21  C   4.0    0.00    3.65    3.20     3.34785    -4.54886    -6.62565
    22  C   4.0   -0.00    3.65    3.20     1.23096    -3.32667    -5.69192
    23  C   4.0    0.00    3.65    3.20    -0.15235    -1.54105    -7.28906
    24  C   4.0   -0.00    3.65    3.20    -1.00720     0.54965    -5.69187
    25  C   4.0   -0.00    3.65    3.20    -1.00730     2.99405    -6.62558
    26  C   4.0    0.00    3.65    3.20    -0.15245     5.08479    -5.02848
    27  C   4.0   -0.00    3.65    3.20     1.23061     6.87051    -6.62574
    28  C   4.0    0.00    3.65    3.20     3.34753     8.09279    -5.69218
    29  C   4.0   -0.00    3.65    3.20    10.51529     4.61825    -2.58446
    30  C   4.0   -0.00    3.65    3.20     7.82350     6.17196   -10.72090
    31  C   4.0    0.00    3.65    3.20     9.94050     5.88354    -9.21031
    32  C   4.0    0.00    3.65    3.20    11.32373     3.48784    -9.21030
    33  C   4.0   -0.00    3.65    3.20    10.51511     1.51025   -10.72099
    34  C   4.0    0.00    3.65    3.20     8.27705     1.81521   -12.31806
    35  C   4.0    0.00    3.65    3.20     4.20227     4.08119   -12.31794
    36  C   4.0   -0.00    3.65    3.20     3.34741     6.17191   -10.72077
    37  C   4.0    0.00    3.65    3.20     5.58543     7.46411    -9.73376
    38  C   4.0   -0.00    3.65    3.20     5.58550     8.39782    -7.28939
    39  C   4.0   -0.00    3.65    3.20     7.82362     8.09282    -5.69226
    40  C   4.0   -0.00    3.65    3.20     9.94054     6.87067    -6.62600
    41  C   4.0    0.00    3.65    3.20    12.17863     2.99434    -6.62608
    42  C   4.0    0.00    3.65    3.20    12.17874     0.55000    -5.69235
    43  C   4.0   -0.00    3.65    3.20    11.32384    -1.54080    -7.28943
    44  C   4.0   -0.00    3.65    3.20    10.51517    -1.07400    -9.73383
    45  C   4.0   -0.00    3.65    3.20     8.27720    -2.36618   -10.72085
    46  C   4.0   -0.00    3.65    3.20     6.89392    -0.58058   -12.31796
    47  C   4.0   -0.00    3.65    3.20     4.27727    -0.58061   -12.31785
    48  C   4.0    0.00    3.65    3.20     2.89402     1.81509   -12.31786
    49  C   4.0   -0.00    3.65    3.20     1.23054     5.88336    -9.20996
    50  C   4.0   -0.00    3.65    3.20    -0.15255     3.48758    -9.20988
    51  C   4.0    0.00    3.65    3.20     0.65604     1.51003   -10.72061
    52  C   4.0    0.00    3.65    3.20     0.65614    -1.07423    -9.73349
    53  C   4.0    0.00    3.65    3.20     2.89420    -2.36631   -10.72065
    54  C   4.0   -0.00    3.65    3.20     4.20262    -4.05531    -9.20999
    55  C   4.0   -0.00    3.65    3.20     6.96898    -4.05526    -9.21005
    56  C   4.0   -0.00    3.65    3.20     7.82392    -4.54873    -6.62588
    57  C   4.0    0.00    3.65    3.20     9.94083    -3.32646    -5.69228
    58  C   4.0   -0.00    3.65    3.20    11.32377     5.08510    -5.02891
    59  C   4.0    0.00    3.65    3.20    11.32399     0.05646    -3.10803
    60  C   4.0   -0.00    3.65    3.20     6.96865     4.08127   -12.31800
 
  Z AO/shell   Hii/eV     exponent
  6     Wed Apr 25 08:07:45 CEST 2018   EN: 2.550 GM2: 0.538  GM3: 0.1500  RAES: 3.00
     2s    -13.970922    2.096432
     2p    -10.063292    1.800000
 
Refinement of some symmetry elements was terminated before convergence was reached.
Some symmetry elements may remain unidentified.
Molecule has the following symmetry elements: (i) 6*(C5) 10*(C3) 15*(C2) 6*(S10) 10*(S6) 15*(sigma) 
It seems to be the Ih point group
ih  symmetry found (for desy threshold:  0.10E+00) used in thermo
 no old-style atom pair restraing (fixing) potential
 
             =======================================
             |                                     |
             |        S C C  calculation           |
             |                                     |
             =======================================
 #proc     :            2
 Ncao      :          240
 Nao       :          240
 Nel       :          240
 T(el)     :   300.0
 intcut    :    25.0
 scfconv   :  0.100E-05
   qconv   :  0.100E-03
 intneglect:  0.100E-07
 broydamp  :      0.400
 Nshell    :          120
 iter      E             dE          RMSdq      gap      omega  full diag
   1   -130.7511515 -0.130751E+03  0.475E+00    1.85       0.0  T
   2   -130.7520626 -0.911156E-03  0.283E+00    1.84       1.0  T
   3   -130.7525605 -0.497912E-03  0.772E-02    1.83       1.0  T
   4   -130.7525656 -0.506141E-05  0.169E-02    1.83       1.0  T
   5   -130.7525656 -0.198156E-07  0.282E-03    1.83       4.6  T
   6   -130.7525653  0.274804E-06  0.179E-03    1.83       7.2  T
   7   -130.7525657 -0.329161E-06  0.191E-04    1.83      67.7  T
   8   -130.7525657 -0.264612E-08  0.584E-05    1.83     221.1  T
speedup  1.00
cpu  time for SCC    0.14 s
wall time for SCC    0.14 s

          eigenvalues
 #    :         108        109        110        111        112        113        114        115
 occ. :        2.000      2.000      2.000      2.000      2.000      2.000      2.000      2.000
 eps  :       -11.453    -11.453    -11.453    -11.430    -11.430    -11.430    -11.430    -11.430
 #    :         116        117        118        119        120        121        122        123
 occ. :        2.000      2.000      2.000      2.000      2.000      0.000      0.000      0.000
 eps  :       -10.612    -10.612    -10.612    -10.612    -10.612     -8.783     -8.783     -8.783
 #    :         124        125        126        127        128        129        130        131
 occ. :        0.000      0.000      0.000      0.000      0.000      0.000      0.000      0.000
 eps  :        -8.031     -8.031     -8.031     -6.939     -6.939     -6.939     -6.939     -6.939
 

   #   Z            q   n(s)   n(p)   n(d)      C6AA      α(0)    relVol
   1   6 C      0.000  1.102  2.898  0.000    27.103     8.452     0.684
   2   6 C      0.000  1.102  2.898  0.000    27.103     8.452     0.684
   3   6 C     -0.000  1.102  2.898  0.000    27.103     8.452     0.684
   4   6 C     -0.000  1.102  2.898  0.000    27.103     8.452     0.684
   5   6 C      0.000  1.102  2.898  0.000    27.103     8.452     0.684
   6   6 C     -0.000  1.102  2.898  0.000    27.103     8.452     0.684
   7   6 C      0.000  1.102  2.898  0.000    27.103     8.452     0.684
   8   6 C     -0.000  1.102  2.898  0.000    27.103     8.452     0.684
   9   6 C     -0.000  1.102  2.898  0.000    27.103     8.452     0.684
  10   6 C      0.000  1.102  2.898  0.000    27.103     8.452     0.684
  11   6 C      0.000  1.102  2.898  0.000    27.103     8.452     0.684
  12   6 C      0.000  1.102  2.898  0.000    27.103     8.452     0.684
  13   6 C     -0.000  1.102  2.898  0.000    27.103     8.452     0.684
  14   6 C      0.000  1.102  2.898  0.000    27.103     8.452     0.684
  15   6 C     -0.000  1.102  2.898  0.000    27.103     8.452     0.684
  16   6 C      0.000  1.102  2.898  0.000    27.103     8.452     0.684
  17   6 C      0.000  1.102  2.898  0.000    27.103     8.452     0.684
  18   6 C      0.000  1.102  2.898  0.000    27.103     8.452     0.684
  19   6 C     -0.000  1.102  2.898  0.000    27.103     8.452     0.684
  20   6 C      0.000  1.102  2.898  0.000    27.103     8.452     0.684
  21   6 C     -0.000  1.102  2.898  0.000    27.103     8.452     0.684
  22   6 C      0.000  1.102  2.898  0.000    27.103     8.452     0.684
  23   6 C     -0.000  1.102  2.898  0.000    27.103     8.452     0.684
  24   6 C      0.000  1.102  2.898  0.000    27.103     8.452     0.684
  25   6 C     -0.000  1.102  2.898  0.000    27.103     8.452     0.684
  26   6 C     -0.000  1.102  2.898  0.000    27.103     8.452     0.684
  27   6 C     -0.000  1.102  2.898  0.000    27.103     8.452     0.684
  28   6 C     -0.000  1.102  2.898  0.000    27.103     8.452     0.684
  29   6 C     -0.000  1.102  2.898  0.000    27.103     8.452     0.684
  30   6 C      0.000  1.102  2.898  0.000    27.103     8.452     0.684
  31   6 C     -0.000  1.102  2.898  0.000    27.103     8.452     0.684
  32   6 C      0.000  1.102  2.898  0.000    27.103     8.452     0.684
  33   6 C     -0.000  1.102  2.898  0.000    27.103     8.452     0.684
  34   6 C     -0.000  1.102  2.898  0.000    27.103     8.452     0.684
  35   6 C     -0.000  1.102  2.898  0.000    27.103     8.452     0.684
  36   6 C      0.000  1.102  2.898  0.000    27.103     8.452     0.684
  37   6 C     -0.000  1.102  2.898  0.000    27.103     8.452     0.684
  38   6 C      0.000  1.102  2.898  0.000    27.103     8.452     0.684
  39   6 C     -0.000  1.102  2.898  0.000    27.103     8.452     0.684
  40   6 C      0.000  1.102  2.898  0.000    27.103     8.452     0.684
  41   6 C      0.000  1.102  2.898  0.000    27.103     8.452     0.684
  42   6 C     -0.000  1.102  2.898  0.000    27.103     8.452     0.684
  43   6 C      0.000  1.102  2.898  0.000    27.103     8.452     0.684
  44   6 C     -0.000  1.102  2.898  0.000    27.103     8.452     0.684
  45   6 C      0.000  1.102  2.898  0.000    27.103     8.452     0.684
  46   6 C     -0.000  1.102  2.898  0.000    27.103     8.452     0.684
  47   6 C      0.000  1.102  2.898  0.000    27.103     8.452     0.684
  48   6 C      0.000  1.102  2.898  0.000    27.103     8.452     0.684
  49   6 C     -0.000  1.102  2.898  0.000    27.103     8.452     0.684
  50   6 C     -0.000  1.102  2.898  0.000    27.103     8.452     0.684
  51   6 C     -0.000  1.102  2.898  0.000    27.103     8.452     0.684
  52   6 C      0.000  1.102  2.898  0.000    27.103     8.452     0.684
  53   6 C     -0.000  1.102  2.898  0.000    27.103     8.452     0.684
  54   6 C     -0.000  1.102  2.898  0.000    27.103     8.452     0.684
  55   6 C      0.000  1.102  2.898  0.000    27.103     8.452     0.684
  56   6 C      0.000  1.102  2.898  0.000    27.103     8.452     0.684
  57   6 C      0.000  1.102  2.898  0.000    27.103     8.452     0.684
  58   6 C      0.000  1.102  2.898  0.000    27.103     8.452     0.684
  59   6 C     -0.000  1.102  2.898  0.000    27.103     8.452     0.684
  60   6 C      0.000  1.102  2.898  0.000    27.103     8.452     0.684

 Mol. C6AA /au*bohr^6 :      97570.343459
 Mol. C8AA /au*bohr^6 :    2821903.949876
 Mol. a(0) /au        :        507.126005

 
 Wiberg/Mayer (AO) data. WBOs > 0.1 written file <wbo>
 largest (>0.05) Wiberg bond orders for each atom
           total WBO             WBO to atom ...
     1  C   3.959    C    6 1.413    C    2 1.142    C    7 1.142
     2  C   3.959    C    3 1.413    C    9 1.142    C    1 1.142
     3  C   3.959    C    2 1.413    C   11 1.142    C    4 1.142
     4  C   3.959    C    5 1.413    C   12 1.142    C    3 1.142
     5  C   3.959    C    4 1.413    C   15 1.142    C    6 1.142
     6  C   3.959    C    1 1.413    C    5 1.142    C   17 1.142
     7  C   3.959    C   19 1.413    C    8 1.142    C    1 1.142
     8  C   3.959    C   20 1.413    C    7 1.142    C    9 1.142
     9  C   3.959    C   10 1.413    C    2 1.142    C    8 1.142
    10  C   3.959    C    9 1.413    C   59 1.142    C   57 1.142
    11  C   3.959    C   59 1.413    C    3 1.142    C   29 1.142
    12  C   3.959    C   13 1.413    C   29 1.142    C    4 1.142
    13  C   3.959    C   12 1.413    C   39 1.142    C   14 1.142
    14  C   3.959    C   15 1.413    C   13 1.142    C   28 1.142
    15  C   3.959    C   14 1.413    C    5 1.142    C   16 1.142
    16  C   3.959    C   26 1.413    C   17 1.142    C   15 1.142
    17  C   3.959    C   18 1.413    C   16 1.142    C    6 1.142
    18  C   3.959    C   17 1.413    C   24 1.142    C   19 1.142
    19  C   3.959    C    7 1.413    C   22 1.142    C   18 1.142
    20  C   3.959    C    8 1.413    C   21 1.142    C   56 1.142
    21  C   3.959    C   22 1.413    C   20 1.142    C   54 1.142
    22  C   3.959    C   21 1.413    C   19 1.142    C   23 1.142
    23  C   3.959    C   52 1.413    C   24 1.142    C   22 1.142
    24  C   3.959    C   25 1.413    C   18 1.142    C   23 1.142
    25  C   3.959    C   24 1.413    C   26 1.142    C   50 1.142
    26  C   3.959    C   16 1.413    C   25 1.142    C   27 1.142
    27  C   3.959    C   28 1.413    C   49 1.142    C   26 1.142
    28  C   3.959    C   27 1.413    C   38 1.142    C   14 1.142
    29  C   3.959    C   58 1.413    C   12 1.142    C   11 1.142
    30  C   3.959    C   31 1.413    C   60 1.142    C   37 1.142
    31  C   3.959    C   30 1.413    C   32 1.142    C   40 1.142
    32  C   3.959    C   33 1.413    C   31 1.142    C   41 1.142
    33  C   3.959    C   32 1.413    C   34 1.142    C   44 1.142
    34  C   3.959    C   60 1.413    C   33 1.142    C   46 1.142
    35  C   3.959    C   48 1.413    C   36 1.142    C   60 1.142
    36  C   3.959    C   49 1.413    C   37 1.142    C   35 1.142
    37  C   3.959    C   38 1.413    C   36 1.142    C   30 1.142
    38  C   3.959    C   37 1.413    C   28 1.142    C   39 1.142
    39  C   3.959    C   40 1.413    C   13 1.142    C   38 1.142
    40  C   3.959    C   39 1.413    C   58 1.142    C   31 1.142
    41  C   3.959    C   42 1.413    C   32 1.142    C   58 1.142
    42  C   3.959    C   41 1.413    C   59 1.142    C   43 1.142
    43  C   3.959    C   44 1.413    C   57 1.142    C   42 1.142
    44  C   3.959    C   43 1.413    C   45 1.142    C   33 1.142
    45  C   3.959    C   55 1.413    C   44 1.142    C   46 1.142
    46  C   3.959    C   47 1.413    C   45 1.142    C   34 1.142
    47  C   3.959    C   46 1.413    C   53 1.142    C   48 1.142
    48  C   3.959    C   35 1.413    C   51 1.142    C   47 1.142
    49  C   3.959    C   36 1.413    C   27 1.142    C   50 1.142
    50  C   3.959    C   51 1.413    C   49 1.142    C   25 1.142
    51  C   3.959    C   50 1.413    C   52 1.142    C   48 1.142
    52  C   3.959    C   23 1.413    C   51 1.142    C   53 1.142
    53  C   3.959    C   54 1.413    C   47 1.142    C   52 1.142
    54  C   3.959    C   53 1.413    C   55 1.142    C   21 1.142
    55  C   3.959    C   45 1.413    C   56 1.142    C   54 1.142
    56  C   3.959    C   57 1.413    C   55 1.142    C   20 1.142
    57  C   3.959    C   56 1.413    C   43 1.142    C   10 1.142
    58  C   3.959    C   29 1.413    C   40 1.142    C   41 1.142
    59  C   3.959    C   11 1.413    C   10 1.142    C   42 1.142
    60  C   3.959    C   34 1.413    C   30 1.142    C   35 1.142
 
molecular dipole:
                 x           y           z       tot (Debye)
 q only:       -0.000       0.000       0.000
   full:        0.000       0.000      -0.000       0.000
molecular quadrupole (traceless):
                xx          xy          yy          xz          yz          zz
 q only:       -0.000       0.001       0.000      -0.000       0.000       0.000
  q+dip:       -0.001       0.000       0.000       0.000       0.000       0.000
   full:       -0.001       0.001       0.000      -0.000       0.000       0.000
 SCC converged in            8  cycles
 
SCC energy    :    -130.7525657
rep           :       2.2951182
ES            :      -0.0028375
AES           :       0.0028901
AXC           :       0.0357987
disp          :      -0.1592443
XB            :       0.0000000
fix           :       0.0000000
total E       :    -128.4378416
atomizationE  :      31.0651119    19493.65
(atE without considerung molecular charge,
 total energy contains solvation terms)
H-L gap (eV)  :          1.8297
 
             =======================================
             |                                     |
             |    Approximate Normal Coordinate    |
             |   Rational Function Optimization    |
             |                                     |
             =======================================
Ref. for RF algo: F.Eckert, P.Pulay, H.-J.Werner
                  J.Comput.Chem. 18 (1997) 1473.
ANC idea implemented by S. Grimme in the 2000ers (unpublished)
restraining potential by S. Ehrlich.
dumping coords to <xtbopt.coord> and <xtbopt.log
 optlevel               1
 Maxcycle             300
 Maxmicro              20
 Econv         1.000000000000000E-006
 Gconv         8.000000000000000E-004
 Maxdispl       1.00000000000000     
 Hlow          1.000000000000000E-002
 S6             20.0000000000000     
 Nvar              174

generating ANC from model Hessian ...
 Shifting diagonal of input Hessian by   0.000000000000000E+000
 Lowest  eigenvalues of input Hessian
   -0.000000   -0.000000   -0.000000   -0.000000    0.000000    0.000000
    0.033003    0.033004    0.033004    0.033004    0.033004    0.066015
    0.066016    0.066016    0.068551    0.068552    0.068552    0.068552
 Highest eigenvalues
    1.897410    1.904345    1.904353    1.904355    1.904360    1.904364
 
cpu  time for ANC gen    0.03 s
wall time for ANC gen    0.03 s
................................................................................
.............................. CYCLE    1 ......................................
................................................................................
  q data taken from xtbrestart
  CAMM data taken from xtbrestart
   1   -130.7525657 -0.130753E+03  0.356E-05    1.83       0.0  T
   2   -130.7525657  0.439968E-10  0.356E-05    1.83     362.4  T
   3   -130.7525657 -0.127983E-09  0.116E-05    1.83    1111.0  T
speedup  1.00
cpu  time for SCC    0.08 s
wall time for SCC    0.08 s
speedup  1.00
cpu  time for grad    0.08 s
wall time for grad    0.08 s
 E :   -128.43784164  G :  0.121981    pred/act E change:  0.000D+00 -0.714D-10
Maxdispl :   0.3090   ||displ|| :   0.3151   Lambda : -0.226D-01
Largest |displ|/coords:  0.3090 (  27)  0.0616 ( 148)  0.0009 (   7)
................................................................................
.............................. CYCLE    2 ......................................
................................................................................
   1   -130.8815521 -0.130882E+03  0.120E-01    1.79       0.0  T
   2   -130.8815539 -0.176030E-05  0.713E-02    1.79       1.0  T
   3   -130.8815546 -0.754466E-06  0.319E-03    1.79       4.0  T
   4   -130.8815544  0.213131E-06  0.170E-03    1.79       7.6  T
speedup  1.00
cpu  time for SCC    0.08 s
wall time for SCC    0.08 s
speedup  1.00
cpu  time for grad    0.07 s
wall time for grad    0.07 s
 E :   -128.45296934  G :  0.055456    pred/act E change:  0.000D+00 -0.151D-01
Maxdispl :   0.0973   ||displ|| :   0.1051   Lambda : -0.343D-02
Largest |displ|/coords:  0.0973 (  27)  0.0397 ( 148)  0.0006 (  22)
................................................................................
.............................. CYCLE    3 ......................................
................................................................................
   1   -130.9173859 -0.130917E+03  0.660E-02    1.76       0.0  T
   2   -130.9173862 -0.292406E-06  0.390E-02    1.76       1.0  T
   3   -130.9173863 -0.195866E-07  0.163E-03    1.76       7.9  T
   4   -130.9173863 -0.610164E-07  0.111E-03    1.76      11.7  T
speedup  1.00
cpu  time for SCC    0.08 s
wall time for SCC    0.08 s
speedup  1.00
cpu  time for grad    0.07 s
wall time for grad    0.07 s
 E :   -128.45500101  G :  0.013239    pred/act E change: -0.124D-01 -0.203D-02
Maxdispl :   0.0120   ||displ|| :   0.0156   Lambda : -0.168D-03
Largest |displ|/coords:  0.0120 ( 148)  0.0100 (  27)  0.0003 (   6)
................................................................................
.............................. CYCLE    4 ......................................
................................................................................
   1   -130.9195957 -0.130920E+03  0.187E-02    1.75       0.0  T
   2   -130.9195957 -0.107530E-07  0.110E-02    1.75       1.2  T
   3   -130.9195953  0.375982E-06  0.187E-03    1.75       6.9  T
   4   -130.9195957 -0.401037E-06  0.269E-04    1.75      47.9  T
speedup  1.00
cpu  time for SCC    0.08 s
wall time for SCC    0.08 s
speedup  1.00
cpu  time for grad    0.07 s
wall time for grad    0.07 s
 E :   -128.45508717  G :  0.000740    pred/act E change: -0.173D-02 -0.862D-04
Maxdispl :   0.0023   ||displ|| :   0.0025   Lambda : -0.123D-05
Largest |displ|/coords:  0.0023 (  27)  0.0006 ( 148)  0.0003 (   5)
................................................................................
.............................. CYCLE    5 ......................................
................................................................................
   1   -130.9184781 -0.130918E+03  0.977E-04    1.75       0.0  T
   2   -130.9184781 -0.997034E-10  0.576E-04    1.75      22.4  T
   3   -130.9184781  0.901389E-08  0.307E-04    1.75      42.0  T
speedup  1.00
cpu  time for SCC    0.08 s
wall time for SCC    0.08 s
speedup  1.00
cpu  time for grad    0.08 s
wall time for grad    0.08 s
 E :   -128.45508786  G :  0.000086    pred/act E change: -0.839D-04 -0.689D-06
Maxdispl :   0.0004   ||displ|| :   0.0007   Lambda : -0.421D-07
Largest |displ|/coords:  0.0004 (  27)  0.0002 (   5)  0.0002 (   1)
ancopt converged in          5 cycles
total energy gain (kcal):    -10.8222
================
 final structure:
================
    60
       -128.45508786
C           2.23416551264900   -0.28091603387492   -0.02734868101774
C           3.67781691539418   -0.28087715077088   -0.02740644317460
C           4.37227717533726    0.92202188609061   -0.02739599560757
C           3.65042331099428    2.17225834612906   -0.02730086501334
C           2.26143628394776    2.17223052634986   -0.02724616277666
C           1.53964901642980    0.92195098198356   -0.02728985777960
C           1.78804315572449   -1.37201581166682   -0.86078558001442
C           2.95598764869999   -2.04630990931854   -1.37594406127165
C           4.12393361566944   -1.37195494949219   -0.86087273083651
C           5.24761479700430   -1.21879155313948   -1.66282091692238
C           5.54019173837105    1.08121616338282   -0.86092468750861
C           4.37219412144112    3.10412665621667   -0.86087952372677
C           3.67765529180505    4.00067152661774   -1.66280298135771
C           2.23399438416596    4.00064016474348   -1.66275399672069
C           1.53955695738434    3.10406059686380   -0.86077780445749
C           0.37161188433599    2.42970752822710   -1.37587373105626
C           0.37166198637938    1.08108367015845   -0.86073568209945
C          -0.05755125716768    0.03132567613425   -1.66264159899706
C           0.66430346102665   -1.21890734758942   -1.66265864632164
C           2.95595395016141   -2.54195424490538   -2.67347357011345
C           1.78797315211943   -2.38281026553324   -3.50693065503105
C           0.66427151525854   -1.73406164517023   -3.01127646702001
C          -0.05761053122720   -0.80221280252976   -3.84475894328761
C          -0.50372256493865    0.28884984593091   -3.01125509995767
C          -0.50377756722650    1.58638660167584   -3.50688179092533
C          -0.05765921273584    2.67747519799605   -2.67341056117804
C           0.66411341559955    3.60936118893168   -3.50694347620054
C           1.78782290185083    4.25816606164975   -3.01137163258571
C           5.54013680358113    2.42983818999303   -1.37606084125457
C           4.12364544746406    3.24742639889464   -5.65759621592800
C           5.24738934969184    3.09432121889779   -4.85572583619535
C           5.96924227939597    1.84408690829185   -4.85574372216162
C           5.54002849785184    0.79432759213316   -5.65764754465775
C           4.37204503429519    0.95345988449949   -6.49110131340903
C           2.23387344729876    2.15628641594817   -6.49096640947079
C           1.78775602026405    3.24736831550379   -5.65751173298606
C           2.95570131785692    3.92172401686627   -5.14244054275658
C           2.95573636122118    4.41736926097517   -3.84491104585871
C           4.12371733612486    4.25822469172857   -3.01145333864393
C           5.24742241851093    3.60947694439950   -3.50710654027031
C           6.41541397572081    1.58656220144047   -3.50712960192186
C           6.41546985505720    0.28902573614143   -3.01150389043944
C           5.96935066332674   -0.80206177860994   -3.84497465640637
C           5.54007766582937   -0.55429301004779   -5.14251000277698
C           4.37213211908112   -1.22864677055641   -5.65760678686474
C           3.65025309869553   -0.29681869866358   -6.49113865536387
C           2.26126697207563   -0.29684823419465   -6.49109120396870
C           1.53941146064469    0.95338946822509   -6.49099768165963
C           0.66407435332498    3.09420557755082   -4.85556188437466
C          -0.05771572024818    1.84393515345606   -4.85553030168139
C           0.37149619561489    0.79419638862703   -5.65746144473153
C           0.37155207766003   -0.55442381064787   -5.14232390198276
C           1.53949759199278   -1.22871504800050   -5.65750701645343
C           2.23403623571850   -2.12525742131286   -4.85558285588077
C           3.67769561549347   -2.12522548453620   -4.85562999569629
C           4.12386672306565   -2.38275101901060   -3.50701296550349
C           5.24757556575628   -1.73394795445695   -3.01144088990411
C           5.96930274769757    2.67762863106962   -2.67362439959371
C           5.96940702917514    0.03147740094345   -1.66285387016842
C           3.67752300230714    2.15632512936118   -6.49102276807558
 
 Bond Distances (Angstroems)
 ---------------------------
C1-C2=1.4437         C1-C6=1.3890         C1-C7=1.4437         C2-C1=1.4437         C2-C3=1.3890         C2-C9=1.4437         
C3-C2=1.3890         C3-C4=1.4437         C3-C11=1.4437        C4-C3=1.4437         C4-C5=1.3890         C4-C12=1.4437        
C5-C4=1.3890         C5-C6=1.4437         C5-C15=1.4437        C6-C1=1.3890         C6-C5=1.4437         C6-C17=1.4437        
C7-C1=1.4437         C7-C8=1.4437         C7-C19=1.3890        C8-C7=1.4437         C8-C9=1.4437         C8-C20=1.3890        
C9-C2=1.4437         C9-C8=1.4437         C9-C10=1.3890        C10-C9=1.3890        C10-C57=1.4437       C10-C59=1.4437       
C11-C3=1.4437        C11-C29=1.4437       C11-C59=1.3890       C12-C4=1.4437        C12-C13=1.3890       C12-C29=1.4437       
C13-C12=1.3890       C13-C14=1.4437       C13-C39=1.4437       C14-C13=1.4437       C14-C15=1.3890       C14-C28=1.4437       
C15-C5=1.4437        C15-C14=1.3890       C15-C16=1.4437       C16-C15=1.4437       C16-C17=1.4437       C16-C26=1.3890       
C17-C6=1.4437        C17-C16=1.4437       C17-C18=1.3890       C18-C17=1.3890       C18-C19=1.4437       C18-C24=1.4437       
C19-C7=1.3890        C19-C18=1.4437       C19-C22=1.4437       C20-C8=1.3890        C20-C21=1.4437       C20-C56=1.4437       
C21-C20=1.4437       C21-C22=1.3890       C21-C54=1.4437       C22-C19=1.4437       C22-C21=1.3890       C22-C23=1.4437       
C23-C22=1.4437       C23-C24=1.4437       C23-C52=1.3890       C24-C18=1.4437       C24-C23=1.4437       C24-C25=1.3890       
C25-C24=1.3890       C25-C26=1.4437       C25-C50=1.4437       C26-C16=1.3890       C26-C25=1.4437       C26-C27=1.4437       
C27-C26=1.4437       C27-C28=1.3890       C27-C49=1.4437       C28-C14=1.4437       C28-C27=1.3890       C28-C38=1.4437       
C29-C11=1.4437       C29-C12=1.4437       C29-C58=1.3890       C30-C31=1.3890       C30-C37=1.4437       C30-C60=1.4437       
C31-C30=1.3890       C31-C32=1.4437       C31-C40=1.4437       C32-C31=1.4437       C32-C33=1.3890       C32-C41=1.4437       
C33-C32=1.3890       C33-C34=1.4437       C33-C44=1.4437       C34-C33=1.4437       C34-C46=1.4437       C34-C60=1.3890       
C35-C36=1.4437       C35-C48=1.3890       C35-C60=1.4436       C36-C35=1.4437       C36-C37=1.4437       C36-C49=1.3890       
C37-C30=1.4437       C37-C36=1.4437       C37-C38=1.3890       C38-C28=1.4437       C38-C37=1.3890       C38-C39=1.4437       
C39-C13=1.4437       C39-C38=1.4437       C39-C40=1.3890       C40-C31=1.4437       C40-C39=1.3890       C40-C58=1.4437       
C41-C32=1.4437       C41-C42=1.3890       C41-C58=1.4437       C42-C41=1.3890       C42-C43=1.4437       C42-C59=1.4437       
C43-C42=1.4437       C43-C44=1.3890       C43-C57=1.4437       C44-C33=1.4437       C44-C43=1.3890       C44-C45=1.4437       
C45-C44=1.4437       C45-C46=1.4437       C45-C55=1.3890       C46-C34=1.4437       C46-C45=1.4437       C46-C47=1.3890       
C47-C46=1.3890       C47-C48=1.4437       C47-C53=1.4437       C48-C35=1.3890       C48-C47=1.4437       C48-C51=1.4437       
C49-C27=1.4437       C49-C36=1.3890       C49-C50=1.4437       C50-C25=1.4437       C50-C49=1.4437       C50-C51=1.3890       
C51-C48=1.4437       C51-C50=1.3890       C51-C52=1.4437       C52-C23=1.3890       C52-C51=1.4437       C52-C53=1.4437       
C53-C47=1.4437       C53-C52=1.4437       C53-C54=1.3890       C54-C21=1.4437       C54-C53=1.3890       C54-C55=1.4437       
C55-C45=1.3890       C55-C54=1.4437       C55-C56=1.4437       C56-C20=1.4437       C56-C55=1.4437       C56-C57=1.3890       
C57-C10=1.4437       C57-C43=1.4437       C57-C56=1.3890       C58-C29=1.3890       C58-C40=1.4437       C58-C41=1.4437       
C59-C10=1.4437       C59-C11=1.3890       C59-C42=1.4437       C60-C30=1.4437       C60-C34=1.3890       C60-C35=1.4436       
 C  C  Rav=1.4254 sigma=0.0258  Rmin=1.3890  Rmax=1.4437    90
 
 selected bond angles (degree)
 --------------------
C6-C1-C2=120.00                C7-C1-C2=108.00                C7-C1-C6=120.00                C3-C2-C1=120.00                
C9-C2-C1=108.00                C9-C2-C3=120.00                C4-C3-C2=120.00                C11-C3-C2=120.00               
C11-C3-C4=108.00               C5-C4-C3=120.00                C12-C4-C3=108.00               C12-C4-C5=120.00               
C6-C5-C4=120.00                C15-C5-C4=120.00               C15-C5-C6=108.00               C5-C6-C1=120.00                
C17-C6-C1=120.00               C17-C6-C5=108.00               C8-C7-C1=108.00                C19-C7-C1=120.00               
C19-C7-C8=120.00               C9-C8-C7=108.00                C20-C8-C7=120.00               C20-C8-C9=120.00               
C8-C9-C2=108.00                C10-C9-C2=120.00               C10-C9-C8=120.00               C57-C10-C9=120.00              
C59-C10-C9=120.00              C59-C10-C57=108.00             
 
 selected dihedral angles (degree)
 ---------------------------------
C3-C2-C1-C6=  0.00            C3-C2-C1-C7=142.63            C9-C2-C1-C6=217.37            C9-C2-C1-C7=  0.00            
C4-C3-C2-C1=  0.00            C4-C3-C2-C9=138.19            C11-C3-C2-C1=221.81           C11-C3-C2-C9=  0.00           
C5-C4-C3-C2=  0.00            C5-C4-C3-C11=142.62           C12-C4-C3-C2=217.38           C12-C4-C3-C11=  0.00          
C6-C5-C4-C3=  0.00            C6-C5-C4-C12=138.18           C15-C5-C4-C3=221.82           C15-C5-C4-C12=  0.00          
C5-C6-C1-C2=  0.00            C5-C6-C1-C7=221.81            C17-C6-C1-C2=138.19           C17-C6-C1-C7=  0.00           
C1-C6-C5-C4=  0.00            C1-C6-C5-C15=142.62           C17-C6-C5-C4=217.38           C17-C6-C5-C15=  0.00          
C8-C7-C1-C2=  0.00            C8-C7-C1-C6=142.62            C19-C7-C1-C2=217.38           C19-C7-C1-C6=  0.00           
C9-C8-C7-C1=  0.00            C9-C8-C7-C19=142.62           C20-C8-C7-C1=217.38           C20-C8-C7-C19=  0.00          
C8-C9-C2-C1=  0.00            C8-C9-C2-C3=217.37            C10-C9-C2-C1=142.62           C10-C9-C2-C3=  0.00           
C2-C9-C8-C7=  0.00            C2-C9-C8-C20=142.62           C10-C9-C8-C7=217.38           C10-C9-C8-C20=  0.00          
C57-C10-C9-C2=221.81          C57-C10-C9-C8=  0.00          C59-C10-C9-C2=  0.00          C59-C10-C9-C8=138.19          
 
             =======================================
             |                                     |
             |        S C C  calculation           |
             |                                     |
             =======================================
 #proc     :            2
 Ncao      :          240
 Nao       :          240
 Nel       :          240
 T(el)     :   300.0
 intcut    :    25.0
 scfconv   :  0.100E-05
   qconv   :  0.100E-03
 intneglect:  0.100E-07
 broydamp  :      0.400
 Nshell    :          120
 iter      E             dE          RMSdq      gap      omega  full diag
   1   -130.9184781 -0.130918E+03  0.155E-04    1.75       0.0  T
   2   -130.9184781 -0.551381E-11  0.807E-05    1.75     159.9  T
   3   -130.9184781  0.344983E-09  0.866E-05    1.75     149.1  T
speedup  1.00
cpu  time for SCC    0.07 s
wall time for SCC    0.07 s

          eigenvalues
 #    :         108        109        110        111        112        113        114        115
 occ. :        2.000      2.000      2.000      2.000      2.000      2.000      2.000      2.000
 eps  :       -11.479    -11.479    -11.479    -11.479    -11.469    -11.469    -11.469    -11.469
 #    :         116        117        118        119        120        121        122        123
 occ. :        2.000      2.000      2.000      2.000      2.000      0.000      0.000      0.000
 eps  :       -10.607    -10.607    -10.607    -10.607    -10.607     -8.861     -8.861     -8.861
 #    :         124        125        126        127        128        129        130        131
 occ. :        0.000      0.000      0.000      0.000      0.000      0.000      0.000      0.000
 eps  :        -8.091     -8.091     -8.090     -6.829     -6.829     -6.829     -6.829     -6.829
 

   #   Z            q   n(s)   n(p)   n(d)      C6AA      α(0)    relVol
   1   6 C      0.000  1.096  2.904  0.000    26.533     8.294     0.671
   2   6 C      0.000  1.096  2.904  0.000    26.533     8.294     0.671
   3   6 C      0.000  1.096  2.904  0.000    26.533     8.294     0.671
   4   6 C      0.000  1.096  2.904  0.000    26.534     8.294     0.671
   5   6 C     -0.000  1.096  2.904  0.000    26.535     8.294     0.671
   6   6 C     -0.000  1.096  2.904  0.000    26.534     8.294     0.671
   7   6 C      0.000  1.096  2.904  0.000    26.534     8.294     0.671
   8   6 C      0.000  1.096  2.904  0.000    26.533     8.294     0.671
   9   6 C      0.000  1.096  2.904  0.000    26.534     8.294     0.671
  10   6 C     -0.000  1.096  2.904  0.000    26.534     8.294     0.671
  11   6 C      0.000  1.096  2.904  0.000    26.534     8.294     0.671
  12   6 C     -0.000  1.096  2.904  0.000    26.534     8.294     0.671
  13   6 C      0.000  1.096  2.904  0.000    26.534     8.294     0.671
  14   6 C      0.000  1.096  2.904  0.000    26.534     8.294     0.671
  15   6 C     -0.000  1.096  2.904  0.000    26.534     8.294     0.671
  16   6 C     -0.000  1.096  2.904  0.000    26.534     8.294     0.671
  17   6 C     -0.000  1.096  2.904  0.000    26.534     8.294     0.671
  18   6 C      0.000  1.096  2.904  0.000    26.534     8.294     0.671
  19   6 C      0.000  1.096  2.904  0.000    26.534     8.294     0.671
  20   6 C      0.000  1.096  2.904  0.000    26.534     8.294     0.671
  21   6 C      0.000  1.096  2.904  0.000    26.534     8.294     0.671
  22   6 C      0.000  1.096  2.904  0.000    26.534     8.294     0.671
  23   6 C     -0.000  1.096  2.904  0.000    26.534     8.294     0.671
  24   6 C      0.000  1.096  2.904  0.000    26.534     8.294     0.671
  25   6 C     -0.000  1.096  2.904  0.000    26.534     8.294     0.671
  26   6 C     -0.000  1.096  2.904  0.000    26.534     8.294     0.671
  27   6 C     -0.000  1.096  2.904  0.000    26.534     8.294     0.671
  28   6 C      0.000  1.096  2.904  0.000    26.534     8.294     0.671
  29   6 C     -0.000  1.096  2.904  0.000    26.534     8.294     0.671
  30   6 C      0.000  1.096  2.904  0.000    26.534     8.294     0.671
  31   6 C      0.000  1.096  2.904  0.000    26.534     8.294     0.671
  32   6 C      0.000  1.096  2.904  0.000    26.534     8.294     0.671
  33   6 C     -0.000  1.096  2.904  0.000    26.534     8.294     0.671
  34   6 C     -0.000  1.096  2.904  0.000    26.534     8.294     0.671
  35   6 C      0.000  1.096  2.904  0.000    26.533     8.294     0.671
  36   6 C      0.000  1.096  2.904  0.000    26.534     8.294     0.671
  37   6 C      0.000  1.096  2.904  0.000    26.533     8.294     0.671
  38   6 C      0.000  1.096  2.904  0.000    26.534     8.294     0.671
  39   6 C      0.000  1.096  2.904  0.000    26.534     8.294     0.671
  40   6 C      0.000  1.096  2.904  0.000    26.534     8.294     0.671
  41   6 C      0.000  1.096  2.904  0.000    26.534     8.294     0.671
  42   6 C     -0.000  1.096  2.904  0.000    26.534     8.294     0.671
  43   6 C     -0.000  1.096  2.904  0.000    26.534     8.294     0.671
  44   6 C     -0.000  1.096  2.904  0.000    26.534     8.294     0.671
  45   6 C     -0.000  1.096  2.904  0.000    26.534     8.294     0.671
  46   6 C     -0.000  1.096  2.904  0.000    26.535     8.294     0.671
  47   6 C      0.000  1.096  2.904  0.000    26.534     8.294     0.671
  48   6 C      0.000  1.096  2.904  0.000    26.534     8.294     0.671
  49   6 C     -0.000  1.096  2.904  0.000    26.534     8.294     0.671
  50   6 C     -0.000  1.096  2.904  0.000    26.534     8.294     0.671
  51   6 C      0.000  1.096  2.904  0.000    26.534     8.294     0.671
  52   6 C     -0.000  1.096  2.904  0.000    26.534     8.294     0.671
  53   6 C      0.000  1.096  2.904  0.000    26.534     8.294     0.671
  54   6 C      0.000  1.096  2.904  0.000    26.534     8.294     0.671
  55   6 C      0.000  1.096  2.904  0.000    26.534     8.294     0.671
  56   6 C      0.000  1.096  2.904  0.000    26.534     8.294     0.671
  57   6 C     -0.000  1.096  2.904  0.000    26.534     8.294     0.671
  58   6 C     -0.000  1.096  2.904  0.000    26.534     8.294     0.671
  59   6 C     -0.000  1.096  2.904  0.000    26.534     8.294     0.671
  60   6 C      0.000  1.096  2.904  0.000    26.533     8.294     0.671

 Mol. C6AA /au*bohr^6 :      95521.768380
 Mol. C8AA /au*bohr^6 :    2762655.597308
 Mol. a(0) /au        :        497.630791

 
 Wiberg/Mayer (AO) data. WBOs > 0.1 written file <wbo>
 largest (>0.05) Wiberg bond orders for each atom
           total WBO             WBO to atom ...
     1  C   3.960    C    6 1.387    C    2 1.154    C    7 1.154
     2  C   3.960    C    3 1.387    C    1 1.154    C    9 1.154
     3  C   3.960    C    2 1.387    C   11 1.154    C    4 1.154
     4  C   3.960    C    5 1.387    C    3 1.154    C   12 1.154
     5  C   3.960    C    4 1.387    C    6 1.154    C   15 1.154
     6  C   3.960    C    1 1.387    C   17 1.154    C    5 1.154
     7  C   3.960    C   19 1.387    C    1 1.154    C    8 1.154
     8  C   3.960    C   20 1.387    C    9 1.154    C    7 1.154
     9  C   3.960    C   10 1.387    C    2 1.154    C    8 1.154
    10  C   3.960    C    9 1.387    C   59 1.154    C   57 1.154
    11  C   3.960    C   59 1.387    C    3 1.154    C   29 1.154
    12  C   3.960    C   13 1.387    C   29 1.154    C    4 1.154
    13  C   3.960    C   12 1.387    C   39 1.154    C   14 1.154
    14  C   3.960    C   15 1.387    C   28 1.154    C   13 1.154
    15  C   3.960    C   14 1.387    C   16 1.154    C    5 1.154
    16  C   3.960    C   26 1.387    C   17 1.154    C   15 1.154
    17  C   3.960    C   18 1.387    C   16 1.154    C    6 1.154
    18  C   3.960    C   17 1.387    C   24 1.154    C   19 1.154
    19  C   3.960    C    7 1.387    C   18 1.154    C   22 1.154
    20  C   3.960    C    8 1.387    C   21 1.154    C   56 1.154
    21  C   3.960    C   22 1.387    C   20 1.154    C   54 1.154
    22  C   3.960    C   21 1.387    C   23 1.154    C   19 1.154
    23  C   3.960    C   52 1.387    C   22 1.154    C   24 1.154
    24  C   3.960    C   25 1.387    C   18 1.154    C   23 1.154
    25  C   3.960    C   24 1.387    C   50 1.154    C   26 1.154
    26  C   3.960    C   16 1.387    C   27 1.154    C   25 1.154
    27  C   3.960    C   28 1.387    C   26 1.154    C   49 1.154
    28  C   3.960    C   27 1.387    C   14 1.154    C   38 1.154
    29  C   3.960    C   58 1.387    C   11 1.154    C   12 1.154
    30  C   3.960    C   31 1.387    C   60 1.154    C   37 1.154
    31  C   3.960    C   30 1.387    C   32 1.154    C   40 1.154
    32  C   3.960    C   33 1.387    C   41 1.154    C   31 1.154
    33  C   3.960    C   32 1.387    C   44 1.154    C   34 1.154
    34  C   3.960    C   60 1.387    C   33 1.154    C   46 1.154
    35  C   3.960    C   48 1.387    C   36 1.154    C   60 1.154
    36  C   3.960    C   49 1.387    C   35 1.154    C   37 1.154
    37  C   3.960    C   38 1.387    C   36 1.154    C   30 1.154
    38  C   3.960    C   37 1.387    C   28 1.154    C   39 1.154
    39  C   3.960    C   40 1.387    C   13 1.154    C   38 1.154
    40  C   3.960    C   39 1.387    C   58 1.154    C   31 1.154
    41  C   3.960    C   42 1.387    C   32 1.154    C   58 1.154
    42  C   3.960    C   41 1.387    C   59 1.154    C   43 1.154
    43  C   3.960    C   44 1.387    C   57 1.154    C   42 1.154
    44  C   3.960    C   43 1.387    C   33 1.154    C   45 1.154
    45  C   3.960    C   55 1.387    C   44 1.154    C   46 1.154
    46  C   3.960    C   47 1.387    C   45 1.154    C   34 1.154
    47  C   3.960    C   46 1.387    C   48 1.154    C   53 1.154
    48  C   3.960    C   35 1.387    C   51 1.154    C   47 1.154
    49  C   3.960    C   36 1.387    C   50 1.154    C   27 1.154
    50  C   3.960    C   51 1.387    C   25 1.154    C   49 1.154
    51  C   3.960    C   50 1.387    C   52 1.154    C   48 1.154
    52  C   3.960    C   23 1.387    C   51 1.154    C   53 1.154
    53  C   3.960    C   54 1.387    C   47 1.154    C   52 1.154
    54  C   3.960    C   53 1.387    C   55 1.154    C   21 1.154
    55  C   3.960    C   45 1.387    C   56 1.154    C   54 1.154
    56  C   3.960    C   57 1.387    C   55 1.154    C   20 1.154
    57  C   3.960    C   56 1.387    C   43 1.154    C   10 1.154
    58  C   3.960    C   29 1.387    C   40 1.154    C   41 1.154
    59  C   3.960    C   11 1.387    C   10 1.154    C   42 1.154
    60  C   3.960    C   34 1.387    C   30 1.154    C   35 1.154
 
molecular dipole:
                 x           y           z       tot (Debye)
 q only:       -0.000      -0.000       0.000
   full:       -0.000      -0.000       0.000       0.000
molecular quadrupole (traceless):
                xx          xy          yy          xz          yz          zz
 q only:       -0.002       0.001       0.002       0.001      -0.001      -0.000
  q+dip:       -0.002       0.001       0.002       0.001      -0.000      -0.000
   full:       -0.002       0.001       0.002       0.001      -0.001      -0.000
 SCC converged in            3  cycles
 
SCC energy    :    -130.9184781
rep           :       2.4440228
ES            :      -0.0024311
AES           :       0.0020429
AXC           :       0.0332240
disp          :      -0.1585228
XB            :       0.0000000
fix           :       0.0000000
total E       :    -128.4550879
atomizationE  :      31.0823581    19504.48
(atE without considerung molecular charge,
 total energy contains solvation terms)
H-L gap (eV)  :          1.7457
 !!!!!!!!!!!!!!!!!!!!!!!!!!!!!!!!!!!
 ! Note: the input coordinates are !
 ! NOT overwritten. The optimized  !
 ! ones are on file <xtbopt.coord> !
 ! (or on <xtbopt.xyz> if it was a !
 ! xyz file)                       !
 !!!!!!!!!!!!!!!!!!!!!!!!!!!!!!!!!!!
 
Refinement of some symmetry elements was terminated before convergence was reached.
Some symmetry elements may remain unidentified.
Molecule has the following symmetry elements: (i) 6*(C5) 10*(C3) 15*(C2) 6*(S10) 10*(S6) 15*(sigma) 
It seems to be the Ih point group
ih  symmetry found (for desy threshold:  0.10E+00) used in thermo
  q data taken from xtbrestart
  CAMM data taken from xtbrestart
 
             =======================================
             |                                     |
             |         Numerical Hessian           |
             |                                     |
             =======================================
step length          :   0.00500
SCC accuracy         :   0.30000
Hessian scale factor :   1.00000
frozen atoms in %    :   0.00000    0
RMS gradient         :   0.00008
estimated CPU  time      1.43 min
estimated wall time      1.44 min
 
 writing file <hessian>.
 
 projected vibrational frequencies (cm-1)
eig.   :       -0.00    -0.00    -0.00     0.00     0.00     0.00
eig.   :      256.20   256.20   256.21   256.21   256.30   335.07
eig.   :      335.08   335.24   340.71   340.72   340.75   340.83
eig.   :      392.34   392.41   392.43   392.43   392.47   417.18
eig.   :      417.18   417.18   417.19   417.44   477.99   478.00
eig.   :      478.01   478.21   500.36   500.40   500.46   528.23
eig.   :      528.24   528.25   528.29   528.46   536.49   536.54
eig.   :      536.54   539.20   545.55   545.59   545.61   552.90
eig.   :      553.01   553.02   553.02   634.69   634.71   634.73
eig.   :      644.17   644.21   644.22   644.23   644.25   668.91
eig.   :      668.92   668.94   679.11   679.12   679.12   679.13
eig.   :      679.17   706.58   706.59   706.60   706.62   706.63
eig.   :      711.47   711.48   711.50   711.58   724.91   725.02
eig.   :      725.02   725.03   742.58   742.59   742.59   742.72
eig.   :      743.58   743.59   743.68   761.80   761.88   761.89
eig.   :      797.67   797.72   797.72   824.04   824.05   824.06
eig.   :      824.07   824.10   899.10   996.73   996.73   996.74
eig.   :      996.78  1019.80  1019.82  1019.83  1126.09  1126.09
eig.   :     1126.11  1126.11  1129.60  1129.60  1129.63  1129.63
eig.   :     1129.64  1215.31  1215.33  1215.34  1215.34  1215.34
eig.   :     1220.36  1220.38  1220.41  1224.84  1224.85  1224.88
eig.   :     1277.69  1277.71  1277.72  1277.73  1277.74  1282.25
eig.   :     1282.27  1282.28  1295.61  1295.61  1295.63  1295.66
eig.   :     1319.75  1319.76  1319.77  1319.77  1334.35  1334.38
eig.   :     1334.39  1334.39  1334.39  1339.53  1339.56  1339.56
eig.   :     1436.50  1436.53  1436.54  1436.55  1450.67  1450.68
eig.   :     1450.70  1450.71  1450.71  1478.85  1478.86  1478.88
eig.   :     1496.45  1496.51  1496.51  1496.51  1516.78  1531.36
eig.   :     1531.38  1531.38  1548.00  1548.06  1548.07  1548.08
eig.   :     1548.08  1559.44  1559.49  1559.51  1559.52  1559.52
 reduced masses (amu)
   1: 12.01   2: 12.01   3: 12.01   4: 12.01   5: 12.01   6: 12.01   7: 12.01   8: 12.01
   9: 12.01  10: 12.01  11: 12.01  12: 12.01  13: 12.01  14: 12.01  15: 12.01  16: 12.01
  17: 12.01  18: 12.01  19: 12.01  20: 12.01  21: 12.01  22: 12.01  23: 12.01  24: 12.01
  25: 12.01  26: 12.01  27: 12.01  28: 12.01  29: 12.01  30: 12.01  31: 12.01  32: 12.01
  33: 12.01  34: 12.01  35: 12.01  36: 12.01  37: 12.01  38: 12.01  39: 12.01  40: 12.01
  41: 12.01  42: 12.01  43: 12.01  44: 12.01  45: 12.01  46: 12.01  47: 12.01  48: 12.01
  49: 12.01  50: 12.01  51: 12.01  52: 12.01  53: 12.01  54: 12.01  55: 12.01  56: 12.01
  57: 12.01  58: 12.01  59: 12.01  60: 12.01  61: 12.01  62: 12.01  63: 12.01  64: 12.01
  65: 12.01  66: 12.01  67: 12.01  68: 12.01  69: 12.01  70: 12.01  71: 12.01  72: 12.01
  73: 12.01  74: 12.01  75: 12.01  76: 12.01  77: 12.01  78: 12.01  79: 12.01  80: 12.01
  81: 12.01  82: 12.01  83: 12.01  84: 12.01  85: 12.01  86: 12.01  87: 12.01  88: 12.01
  89: 12.01  90: 12.01  91: 12.01  92: 12.01  93: 12.01  94: 12.01  95: 12.01  96: 12.01
  97: 12.01  98: 12.01  99: 12.01 100: 12.01 101: 12.01 102: 12.01 103: 12.01 104: 12.01
 105: 12.01 106: 12.01 107: 12.01 108: 12.01 109: 12.01 110: 12.01 111: 12.01 112: 12.01
 113: 12.01 114: 12.01 115: 12.01 116: 12.01 117: 12.01 118: 12.01 119: 12.01 120: 12.01
 121: 12.01 122: 12.01 123: 12.01 124: 12.01 125: 12.01 126: 12.01 127: 12.01 128: 12.01
 129: 12.01 130: 12.01 131: 12.01 132: 12.01 133: 12.01 134: 12.01 135: 12.01 136: 12.01
 137: 12.01 138: 12.01 139: 12.01 140: 12.01 141: 12.01 142: 12.01 143: 12.01 144: 12.01
 145: 12.01 146: 12.01 147: 12.01 148: 12.01 149: 12.01 150: 12.01 151: 12.01 152: 12.01
 153: 12.01 154: 12.01 155: 12.01 156: 12.01 157: 12.01 158: 12.01 159: 12.01 160: 12.01
 161: 12.01 162: 12.01 163: 12.01 164: 12.01 165: 12.01 166: 12.01 167: 12.01 168: 12.01
 169: 12.01 170: 12.01 171: 12.01 172: 12.01 173: 12.01 174: 12.01 175: 12.01 176: 12.01
 177: 12.01 178: 12.01 179: 12.01 180: 12.01
 IR intensities (amu)
   1:  0.00   2:  0.00   3:  0.00   4:  0.00   5:  0.00   6:  0.00   7:  0.00   8:  0.00
   9:  0.00  10:  0.00  11:  0.00  12:  0.00  13:  0.00  14:  0.00  15:  0.00  16:  0.01
  17:  0.00  18:  0.00  19:  0.00  20:  0.00  21:  0.00  22:  0.00  23:  0.01  24:  0.00
  25:  0.00  26:  0.00  27:  0.00  28:  0.00  29:  0.00  30:  0.00  31:  0.00  32:  0.00
  33:  0.35  34:  0.33  35:  0.34  36:  0.00  37:  0.00  38:  0.00  39:  0.00  40:  0.00
  41:  0.00  42:  0.00  43:  0.00  44:  0.00  45:  0.00  46:  0.00  47:  0.00  48:  0.00
  49:  0.00  50:  0.00  51:  0.00  52:  0.18  53:  0.18  54:  0.18  55:  0.00  56:  0.01
  57:  0.00  58:  0.00  59:  0.00  60:  0.01  61:  0.00  62:  0.01  63:  0.00  64:  0.00
  65:  0.00  66:  0.00  67:  0.00  68:  0.00  69:  0.01  70:  0.00  71:  0.00  72:  0.01
  73:  0.00  74:  0.00  75:  0.00  76:  0.00  77:  0.00  78:  0.00  79:  0.00  80:  0.00
  81:  0.01  82:  0.01  83:  0.00  84:  0.00  85:  0.00  86:  0.00  87:  0.00  88:  0.00
  89:  0.00  90:  0.00  91:  0.00  92:  0.00  93:  0.00  94:  0.00  95:  0.00  96:  0.00
  97:  0.00  98:  0.00  99:  0.00 100:  0.01 101:  0.01 102:  0.00 103:  0.00 104:  0.01
 105:  0.00 106:  0.00 107:  0.00 108:  0.00 109:  0.00 110:  0.00 111:  0.00 112:  0.00
 113:  0.00 114:  0.00 115:  0.00 116:  0.01 117:  0.00 118:  0.01 119:  0.00 120:  0.01
 121:  0.00 122:  0.00 123:  0.00 124:  0.12 125:  0.12 126:  0.12 127:  0.00 128:  0.00
 129:  0.00 130:  0.00 131:  0.00 132:  0.00 133:  0.00 134:  0.00 135:  0.00 136:  0.00
 137:  0.00 138:  0.00 139:  0.00 140:  0.00 141:  0.00 142:  0.00 143:  0.01 144:  0.00
 145:  0.00 146:  0.00 147:  0.00 148:  0.00 149:  0.00 150:  0.00 151:  0.00 152:  0.00
 153:  0.00 154:  0.00 155:  0.00 156:  0.00 157:  0.00 158:  0.00 159:  0.00 160:  0.48
 161:  0.48 162:  0.48 163:  0.00 164:  0.00 165:  0.00 166:  0.00 167:  0.00 168:  0.00
 169:  0.01 170:  0.00 171:  0.00 172:  0.00 173:  0.00 174:  0.00 175:  0.00 176:  0.00
 177:  0.00 178:  0.00 179:  0.00 180:  0.00
 output can be read by thermo (or use thermo option).
 writing <g98.out> molden fake output.
 recommended (thermochemical) frequency scaling factor: 1.0
                    ==================
                    thermo calculation
                    ==================
Nvib :  174 Nimag : 0  symmetry :   ih  rot number : 60  scale factor : 1.00 sthr :  50.
omega=256.20     Gvib=    -0.503     Grot=    -0.573     Gused=    -0.503
omega=256.20     Gvib=    -0.503     Grot=    -0.573     Gused=    -0.503
omega=256.21     Gvib=    -0.503     Grot=    -0.573     Gused=    -0.503
omega=256.21     Gvib=    -0.503     Grot=    -0.573     Gused=    -0.503
omega=256.30     Gvib=    -0.503     Grot=    -0.572     Gused=    -0.503
 
   temp. (K)  partition function   enthalpy   heat capacity  entropy
                                   cal/mol     cal/K/mol   cal/K/mol   J/K/mol
 298.15  VIB  0.465E+04            11894.209    112.786     56.679
         ROT  0.589E+06              888.752      2.981     29.384
         INT  0.274E+10            12782.961    115.767     86.063
         TR   0.187E+29             1481.254      4.968     45.584
         TOT                       14264.2148   120.7352   131.6479   550.8126
                     Eh         kcal/mol          kJ/mol 
ZPVE            0.367983         230.913         966.136    
H(0)-H(T)+PV    0.227315E-01     14.2642         59.6813    
H(T)            0.390714         245.177         1025.82    
T*S             0.625501E-01     39.2508         164.225    
G(T)            0.328164         205.926         861.592    
   -128.12692358  <=== TOTAL FREE ENERGY in Eh incl. el.,ZPVE,RRHO,solv. parts
 
Eat (element increment corrected) /kcal : 15147.132
       -4648.555  <=== HOF(298)/kcal, to be compared to exptl. data
 
 normal mode %tage of torsion character
   1:  0.00   2:  0.00   3:  0.00   4:  0.00   5:  0.00   6:  0.00   7:  1.00   8:  1.00
   9:  1.00  10:  1.00  11:  1.00  12:  1.00  13:  1.00  14:  1.00  15:  1.00  16:  1.00
  17:  1.00  18:  1.00  19:  1.00  20:  1.00  21:  1.00  22:  1.00  23:  1.00  24:  1.00
  25:  1.00  26:  1.00  27:  1.00  28:  1.00  29:  1.00  30:  1.00  31:  1.00  32:  1.00
  33:  1.00  34:  1.00  35:  1.00  36:  1.00  37:  1.00  38:  1.00  39:  1.00  40:  1.00
  41:  1.00  42:  1.00  43:  1.00  44:  1.00  45:  1.00  46:  1.00  47:  1.00  48:  1.00
  49:  1.00  50:  1.00  51:  1.00  52:  1.00  53:  1.00  54:  1.00  55:  1.00  56:  1.00
  57:  1.00  58:  1.00  59:  1.00  60:  1.00  61:  1.00  62:  1.00  63:  1.00  64:  1.00
  65:  1.00  66:  1.00  67:  1.00  68:  1.00  69:  1.00  70:  1.00  71:  1.00  72:  1.00
  73:  1.00  74:  1.00  75:  1.00  76:  1.00  77:  1.00  78:  1.00  79:  1.00  80:  1.00
  81:  1.00  82:  1.00  83:  1.00  84:  1.00  85:  1.00  86:  1.00  87:  1.00  88:  1.00
  89:  1.00  90:  1.00  91:  1.00  92:  1.00  93:  1.00  94:  1.00  95:  1.00  96:  1.00
  97:  1.00  98:  1.00  99:  1.00 100:  1.00 101:  1.00 102:  1.00 103:  1.00 104:  1.00
 105:  1.00 106:  1.00 107:  1.00 108:  1.00 109:  1.00 110:  1.00 111:  1.00 112:  1.00
 113:  1.00 114:  1.00 115:  1.00 116:  1.00 117:  1.00 118:  1.00 119:  1.00 120:  1.00
 121:  1.00 122:  1.00 123:  1.00 124:  1.00 125:  1.00 126:  1.00 127:  1.00 128:  1.00
 129:  1.00 130:  1.00 131:  1.00 132:  1.00 133:  1.00 134:  1.00 135:  1.00 136:  1.00
 137:  1.00 138:  1.00 139:  1.00 140:  1.00 141:  1.00 142:  1.00 143:  1.00 144:  1.00
 145:  1.00 146:  1.00 147:  1.00 148:  1.00 149:  1.00 150:  1.00 151:  1.00 152:  1.00
 153:  1.00 154:  1.00 155:  1.00 156:  1.00 157:  1.00 158:  1.00 159:  1.00 160:  1.00
 161:  1.00 162:  1.00 163:  1.00 164:  1.00 165:  1.00 166:  1.00 167:  1.00 168:  1.00
 169:  1.00 170:  1.00 171:  1.00 172:  1.00 173:  1.00 174:  1.00 175:  1.00 176:  1.00
 177:  1.00 178:  1.00 179:  1.00 180:  1.00
 recommended # of modes for mode following           4
 
speedup  1.00
cpu  time for all    1 m  6.8 s
wall time for all    1 m  7.1 s
