 Entering Gaussian System
 *********************************************
 Gaussian 98:
 frequency output generated by the xtb code
 *********************************************
                         Standard orientation:
 --------------------------------------------------------------------
  Center     Atomic     Atomic              Coordinates (Angstroms)
  Number     Number      Type              X           Y           Z
 --------------------------------------------------------------------
    1          6             0        2.234164   -0.280928   -0.027356
    2          6             0        3.677815   -0.280896   -0.027419
    3          6             0        4.372282    0.921999   -0.027413
    4          6             0        3.650435    2.172239   -0.027317
    5          6             0        2.261448    2.172219   -0.027258
    6          6             0        1.539654    0.921943   -0.027297
    7          6             0        1.788033   -1.372027   -0.860789
    8          6             0        2.955972   -2.046328   -1.375951
    9          6             0        4.123923   -1.371978   -0.860885
   10          6             0        5.247602   -1.218822   -1.662837
   11          6             0        5.540194    1.081186   -0.860946
   12          6             0        4.372207    3.104102   -0.860900
   13          6             0        3.677670    4.000649   -1.662823
   14          6             0        2.234009    4.000625   -1.662769
   15          6             0        1.539570    3.104051   -0.860789
   16          6             0        0.371620    2.429703   -1.375879
   17          6             0        0.371665    1.081080   -0.860739
   18          6             0       -0.057557    0.031323   -1.662641
   19          6             0        0.664291   -1.218914   -1.662659
   20          6             0        2.955931   -2.541974   -2.673479
   21          6             0        1.787948   -2.382826   -3.506933
   22          6             0        0.664252   -1.734070   -3.011276
   23          6             0       -0.057628   -0.802219   -3.844757
   24          6             0       -0.503732    0.288847   -3.011254
   25          6             0       -0.503781    1.586383   -3.506883
   26          6             0       -0.057655    2.677471   -2.673415
   27          6             0        0.664120    3.609352   -3.506952
   28          6             0        1.787835    4.258151   -3.011385
   29          6             0        5.540145    2.429807   -1.376084
   30          6             0        4.123643    3.247395   -5.657616
   31          6             0        5.247388    3.094285   -4.855749
   32          6             0        5.969235    1.844047   -4.855768
   33          6             0        5.540013    0.794289   -5.657668
   34          6             0        4.372027    0.953426   -6.491118
   35          6             0        2.233862    2.156263   -6.490978
   36          6             0        1.787753    3.247349   -5.657524
   37          6             0        2.955704    3.921699   -5.142458
   38          6             0        2.955746    4.417347   -3.844929
   39          6             0        4.123729    4.258198   -3.011475
   40          6             0        5.247429    3.609443   -3.507131
   41          6             0        6.415410    1.586522   -3.507155
   42          6             0        6.415461    0.288987   -3.011527
   43          6             0        5.969333   -0.802100   -3.844994
   44          6             0        5.540057   -0.554331   -5.142528
   45          6             0        4.372106   -1.228680   -5.657620
   46          6             0        3.650229   -0.296849   -6.491151
   47          6             0        2.261243   -0.296871   -6.491098
   48          6             0        1.539394    0.953370   -6.491005
   49          6             0        0.664074    3.094194   -4.855569
   50          6             0       -0.057723    1.843927   -4.855533
   51          6             0        0.371481    0.794185   -5.657464
   52          6             0        0.371531   -0.554435   -5.142324
   53          6             0        1.539471   -1.228733   -5.657510
   54          6             0        2.234008   -2.125278   -4.855587
   55          6             0        3.677667   -2.125253   -4.855639
   56          6             0        4.123842   -2.382779   -3.507023
   57          6             0        5.247556   -1.733981   -3.011456
   58          6             0        5.969307    2.677593   -2.673650
   59          6             0        5.969401    0.031443   -1.662875
   60          6             0        3.677512    2.156294   -6.491039
 --------------------------------------------------------------------
     1 basis functions        1 primitive gaussians
     1 alpha electrons        1 beta electrons
 
 Harmonic frequencies (cm**-1), IR intensities (KM/Mole),
 Raman scattering activities (A**4/amu), Raman depolarization ratios,
 reduced masses (AMU), force constants (mDyne/A) and normal coordinates:
                      1                      2                      3
                        a                      a                      a 
 Frequencies --   256.1965               256.2042               256.2075
 Red. masses --    12.0110                12.0110                12.0110
 Frc consts  --     0.0000                 0.0000                 0.0000
 IR Inten    --     0.0001                 0.0000                 0.0000
 Raman Activ --     0.0000                 0.0000                 0.0000
 Depolar     --     0.0000                 0.0000                 0.0000
 Atom AN      X      Y      Z        X      Y      Z        X      Y      Z
   1   6    -0.00  -0.11   0.15    -0.01   0.00   0.14    -0.01   0.05   0.08
   2   6     0.00  -0.11   0.15     0.01   0.00   0.14    -0.02   0.06   0.07
   3   6    -0.03  -0.08   0.08     0.06  -0.02   0.13    -0.03   0.07   0.12
   4   6    -0.01  -0.06   0.02     0.01  -0.05   0.09     0.00   0.10   0.20
   5   6     0.01  -0.06   0.02    -0.01  -0.05   0.08    -0.01   0.10   0.21
   6   6     0.03  -0.08   0.08    -0.06  -0.02   0.13     0.01   0.06   0.14
   7   6    -0.00  -0.13   0.15    -0.02   0.07   0.06     0.02   0.07   0.01
   8   6     0.00  -0.15   0.15     0.00   0.13   0.04    -0.01   0.08  -0.05
   9   6     0.00  -0.13   0.15     0.02   0.07   0.06    -0.05   0.08  -0.00
  10   6    -0.03  -0.08   0.09     0.03   0.06   0.05    -0.10   0.07  -0.04
  11   6    -0.07  -0.05   0.02     0.07  -0.03   0.10    -0.08   0.05   0.04
  12   6    -0.07  -0.06  -0.04     0.01  -0.10   0.03    -0.01   0.09   0.15
  13   6    -0.01  -0.04  -0.07    -0.01  -0.19  -0.02     0.00   0.09   0.12
  14   6     0.01  -0.04  -0.07     0.01  -0.18  -0.02     0.00   0.08   0.13
  15   6     0.06  -0.06  -0.04    -0.01  -0.10   0.02     0.00   0.09   0.16
  16   6     0.10  -0.07  -0.04    -0.04  -0.06   0.03     0.06   0.04   0.08
  17   6     0.07  -0.05   0.02    -0.07  -0.02   0.10     0.06   0.04   0.06
  18   6     0.09  -0.04   0.03    -0.09   0.02   0.05     0.11   0.05   0.01
  19   6     0.04  -0.07   0.09    -0.02   0.07   0.04     0.07   0.04  -0.03
  20   6     0.00  -0.09   0.10     0.00   0.22   0.02    -0.01   0.05  -0.05
  21   6     0.03  -0.04   0.07     0.02   0.20   0.02     0.02  -0.01  -0.08
  22   6     0.05  -0.02   0.07    -0.00   0.13   0.02     0.07   0.02  -0.03
  23   6     0.13   0.02   0.04    -0.03   0.07  -0.01     0.10   0.01  -0.04
  24   6     0.16   0.01   0.02    -0.09   0.01   0.02     0.14   0.00  -0.00
  25   6     0.16  -0.01  -0.02    -0.09  -0.01  -0.03     0.15  -0.02   0.02
  26   6     0.13  -0.02  -0.04    -0.03  -0.07   0.01     0.11  -0.03   0.05
  27   6     0.05   0.03  -0.07    -0.01  -0.12  -0.02     0.09  -0.04   0.04
  28   6     0.03   0.04  -0.07     0.02  -0.20  -0.02     0.03  -0.01   0.08
  29   6    -0.10  -0.07  -0.04     0.04  -0.06   0.03    -0.06   0.05   0.07
  30   6     0.00   0.13  -0.15     0.02  -0.07  -0.06    -0.02  -0.07  -0.01
  31   6    -0.04   0.07  -0.09     0.02  -0.07  -0.04    -0.07  -0.04   0.03
  32   6    -0.09   0.04  -0.03     0.09  -0.02  -0.05    -0.11  -0.05  -0.01
  33   6    -0.07   0.05  -0.02     0.07   0.02  -0.10    -0.06  -0.04  -0.06
  34   6    -0.03   0.08  -0.08     0.06   0.02  -0.13    -0.01  -0.06  -0.14
  35   6    -0.00   0.11  -0.15    -0.01  -0.00  -0.14     0.02  -0.06  -0.07
  36   6    -0.00   0.13  -0.15    -0.02  -0.07  -0.06     0.05  -0.08   0.00
  37   6    -0.00   0.15  -0.15    -0.00  -0.13  -0.04     0.01  -0.08   0.05
  38   6    -0.00   0.09  -0.10    -0.00  -0.22  -0.02     0.01  -0.05   0.05
  39   6    -0.03   0.04  -0.07    -0.02  -0.20  -0.02    -0.02   0.01   0.08
  40   6    -0.05   0.02  -0.07     0.00  -0.13  -0.02    -0.07  -0.02   0.03
  41   6    -0.16  -0.01  -0.02     0.09  -0.01  -0.02    -0.14  -0.00   0.00
  42   6    -0.16   0.01   0.02     0.09   0.01   0.03    -0.15   0.02  -0.02
  43   6    -0.13   0.02   0.04     0.03   0.07  -0.01    -0.11   0.03  -0.05
  44   6    -0.10   0.07   0.04     0.04   0.06  -0.03    -0.06  -0.04  -0.08
  45   6    -0.06   0.06   0.04     0.01   0.10  -0.02    -0.00  -0.09  -0.16
  46   6    -0.01   0.06  -0.02     0.01   0.05  -0.08     0.01  -0.10  -0.21
  47   6     0.01   0.06  -0.02    -0.01   0.05  -0.09    -0.00  -0.10  -0.20
  48   6     0.03   0.08  -0.08    -0.06   0.02  -0.13     0.03  -0.07  -0.12
  49   6     0.03   0.08  -0.09    -0.03  -0.06  -0.05     0.10  -0.07   0.04
  50   6     0.09   0.04  -0.03    -0.09  -0.02  -0.05     0.13  -0.06   0.02
  51   6     0.07   0.05  -0.02    -0.07   0.03  -0.10     0.08  -0.05  -0.04
  52   6     0.10   0.07   0.04    -0.04   0.06  -0.03     0.06  -0.05  -0.07
  53   6     0.07   0.06   0.04    -0.01   0.10  -0.03     0.01  -0.09  -0.15
  54   6     0.01   0.04   0.07     0.01   0.19   0.02    -0.00  -0.09  -0.12
  55   6    -0.01   0.04   0.07    -0.01   0.18   0.02    -0.00  -0.08  -0.13
  56   6    -0.03  -0.04   0.07    -0.02   0.20   0.02    -0.03   0.01  -0.08
  57   6    -0.05  -0.03   0.07     0.01   0.12   0.02    -0.09   0.04  -0.04
  58   6    -0.13  -0.02  -0.04     0.03  -0.07   0.01    -0.10  -0.01   0.04
  59   6    -0.09  -0.04   0.03     0.09   0.02   0.05    -0.13   0.06  -0.02
  60   6     0.00   0.11  -0.15     0.01  -0.00  -0.14     0.01  -0.05  -0.08
                      4                      5                      6
                        a                      a                      a 
 Frequencies --   256.2103               256.2986               335.0702
 Red. masses --    12.0110                12.0110                12.0110
 Frc consts  --     0.0000                 0.0000                 0.0000
 IR Inten    --     0.0001                 0.0002                 0.0033
 Raman Activ --     0.0000                 0.0000                 0.0000
 Depolar     --     0.0000                 0.0000                 0.0000
 Atom AN      X      Y      Z        X      Y      Z        X      Y      Z
   1   6    -0.11  -0.04   0.05     0.04  -0.02  -0.02    -0.01  -0.12   0.16
   2   6    -0.11   0.03  -0.06     0.04   0.02   0.02     0.01  -0.12   0.16
   3   6    -0.09   0.02  -0.10     0.08   0.02   0.06    -0.05  -0.07  -0.05
   4   6    -0.05   0.01  -0.05     0.10   0.03   0.04    -0.02  -0.06  -0.12
   5   6    -0.05  -0.03   0.02     0.10  -0.03  -0.04     0.02  -0.06  -0.12
   6   6    -0.09  -0.03   0.08     0.08  -0.02  -0.06     0.05  -0.07  -0.05
   7   6    -0.13  -0.07   0.08    -0.01  -0.02  -0.02    -0.02  -0.13   0.16
   8   6    -0.11  -0.01   0.01    -0.01  -0.00   0.00     0.00  -0.12   0.16
   9   6    -0.12   0.06  -0.08    -0.01   0.01   0.02     0.02  -0.13   0.16
  10   6    -0.14   0.11  -0.09    -0.02   0.07   0.05    -0.05  -0.00   0.04
  11   6    -0.10   0.05  -0.10     0.11   0.07   0.10    -0.10  -0.02  -0.08
  12   6    -0.01   0.01  -0.04     0.12   0.08   0.08    -0.04  -0.01  -0.09
  13   6     0.03   0.03  -0.03     0.11   0.05   0.03     0.01   0.13   0.01
  14   6     0.03  -0.05   0.00     0.11  -0.05  -0.03    -0.01   0.13   0.01
  15   6    -0.01  -0.04   0.01     0.12  -0.08  -0.08     0.04  -0.01  -0.09
  16   6    -0.03  -0.05   0.07     0.15  -0.09  -0.10     0.07  -0.01  -0.08
  17   6    -0.11  -0.06   0.10     0.11  -0.07  -0.10     0.10  -0.02  -0.08
  18   6    -0.14  -0.09   0.11     0.03  -0.06  -0.08     0.08  -0.00  -0.04
  19   6    -0.16  -0.12   0.10    -0.02  -0.07  -0.04     0.05  -0.00   0.04
  20   6    -0.08  -0.00   0.01    -0.08  -0.00   0.00     0.00   0.11   0.06
  21   6    -0.08  -0.05   0.02    -0.09  -0.09  -0.03     0.05   0.15   0.02
  22   6    -0.11  -0.11   0.07    -0.11  -0.11  -0.04     0.04   0.08   0.01
  23   6    -0.06  -0.07   0.06    -0.12  -0.12  -0.08     0.02   0.04  -0.03
  24   6    -0.07  -0.08   0.08    -0.03  -0.08  -0.07     0.04   0.02  -0.03
  25   6     0.04  -0.08   0.08     0.03  -0.08  -0.07    -0.04   0.02  -0.03
  26   6     0.04  -0.07   0.05     0.12  -0.12  -0.08    -0.02   0.04  -0.03
  27   6     0.09  -0.10   0.06     0.11  -0.11  -0.04    -0.04   0.08   0.01
  28   6     0.08  -0.06   0.01     0.10  -0.09  -0.03    -0.05   0.15   0.02
  29   6    -0.02   0.04  -0.08     0.15   0.09   0.10    -0.07  -0.01  -0.08
  30   6     0.13   0.07  -0.08     0.01   0.02   0.02    -0.02  -0.13   0.16
  31   6     0.16   0.12  -0.10     0.02   0.07   0.04     0.05  -0.00   0.04
  32   6     0.14   0.09  -0.11    -0.03   0.06   0.08     0.08  -0.00  -0.04
  33   6     0.11   0.06  -0.10    -0.11   0.07   0.10     0.10  -0.02  -0.08
  34   6     0.09   0.03  -0.08    -0.08   0.02   0.06     0.05  -0.07  -0.05
  35   6     0.11  -0.03   0.06    -0.04  -0.02  -0.02     0.01  -0.12   0.16
  36   6     0.12  -0.06   0.08     0.01  -0.01  -0.02     0.02  -0.13   0.16
  37   6     0.11   0.01  -0.01     0.01   0.00  -0.00     0.00  -0.12   0.16
  38   6     0.08   0.00  -0.01     0.08   0.00  -0.00     0.00   0.11   0.06
  39   6     0.08   0.05  -0.02     0.09   0.09   0.03     0.05   0.15   0.02
  40   6     0.11   0.11  -0.07     0.11   0.11   0.04     0.04   0.08   0.01
  41   6     0.07   0.08  -0.08     0.03   0.08   0.07     0.04   0.02  -0.03
  42   6    -0.04   0.08  -0.08    -0.03   0.08   0.07    -0.04   0.02  -0.03
  43   6    -0.04   0.07  -0.06    -0.12   0.12   0.08    -0.02   0.04  -0.03
  44   6     0.03   0.05  -0.07    -0.15   0.09   0.10     0.07  -0.01  -0.08
  45   6     0.01   0.04  -0.01    -0.12   0.08   0.08     0.04  -0.01  -0.09
  46   6     0.05   0.03  -0.02    -0.10   0.03   0.04     0.02  -0.06  -0.12
  47   6     0.05  -0.01   0.05    -0.10  -0.03  -0.04    -0.02  -0.06  -0.12
  48   6     0.09  -0.02   0.10    -0.08  -0.02  -0.06    -0.05  -0.07  -0.05
  49   6     0.14  -0.11   0.09     0.02  -0.07  -0.05    -0.05  -0.00   0.04
  50   6     0.11  -0.08   0.11    -0.03  -0.05  -0.08    -0.08  -0.00  -0.04
  51   6     0.10  -0.05   0.10    -0.11  -0.07  -0.10    -0.10  -0.02  -0.08
  52   6     0.02  -0.04   0.08    -0.15  -0.09  -0.10    -0.07  -0.01  -0.08
  53   6     0.01  -0.01   0.04    -0.12  -0.08  -0.08    -0.04  -0.01  -0.09
  54   6    -0.03  -0.03   0.03    -0.11  -0.05  -0.03     0.01   0.13   0.01
  55   6    -0.03   0.05  -0.00    -0.11   0.05   0.03    -0.01   0.13   0.01
  56   6    -0.08   0.06  -0.01    -0.10   0.09   0.03    -0.05   0.15   0.02
  57   6    -0.09   0.10  -0.06    -0.11   0.11   0.04    -0.04   0.08   0.01
  58   6     0.06   0.07  -0.06     0.12   0.12   0.08     0.02   0.04  -0.03
  59   6    -0.11   0.08  -0.11     0.03   0.05   0.08    -0.08  -0.00  -0.04
  60   6     0.11   0.04  -0.05    -0.04   0.02   0.02    -0.01  -0.12   0.16
                      7                      8                      9
                        a                      a                      a 
 Frequencies --   335.0764               335.2440               340.7071
 Red. masses --    12.0110                12.0110                12.0110
 Frc consts  --     0.0000                 0.0000                 0.0000
 IR Inten    --     0.0039                 0.0015                 0.0039
 Raman Activ --     0.0000                 0.0000                 0.0000
 Depolar     --     0.0000                 0.0000                 0.0000
 Atom AN      X      Y      Z        X      Y      Z        X      Y      Z
   1   6     0.01  -0.01   0.06     0.04  -0.02  -0.04     0.01   0.01  -0.19
   2   6    -0.01  -0.01   0.06     0.04   0.02   0.05    -0.01   0.01  -0.19
   3   6    -0.00   0.00   0.05     0.10   0.02   0.17    -0.03   0.01  -0.18
   4   6     0.01  -0.01   0.05     0.11   0.05   0.12    -0.00   0.01  -0.14
   5   6    -0.01  -0.01   0.05     0.11  -0.05  -0.12     0.00   0.01  -0.14
   6   6     0.00   0.00   0.05     0.10  -0.02  -0.17     0.03   0.01  -0.18
   7   6     0.05  -0.02   0.03    -0.03  -0.03  -0.01    -0.01  -0.11   0.00
   8   6     0.00  -0.09   0.02    -0.02  -0.00   0.00    -0.00  -0.20   0.08
   9   6    -0.05  -0.02   0.03    -0.03   0.03   0.01     0.01  -0.11   0.00
  10   6    -0.14   0.08  -0.06    -0.08   0.08  -0.03     0.04  -0.05   0.05
  11   6    -0.02   0.05   0.01     0.09   0.04   0.15     0.06   0.04  -0.02
  12   6     0.03  -0.04   0.01     0.09   0.09   0.14     0.08   0.09   0.04
  13   6    -0.00  -0.16  -0.06     0.04   0.01   0.04     0.02   0.10   0.09
  14   6     0.00  -0.16  -0.06     0.04  -0.01  -0.05    -0.02   0.10   0.09
  15   6    -0.03  -0.04   0.01     0.09  -0.09  -0.14    -0.08   0.09   0.04
  16   6    -0.07   0.04   0.01     0.09  -0.06  -0.14    -0.12   0.09   0.05
  17   6     0.02   0.05   0.01     0.09  -0.04  -0.15    -0.06   0.04  -0.02
  18   6     0.15   0.08  -0.06    -0.08  -0.06  -0.02    -0.03  -0.02   0.04
  19   6     0.14   0.08  -0.06    -0.08  -0.08   0.03    -0.05  -0.05   0.05
  20   6     0.00  -0.18   0.02    -0.03  -0.00   0.00     0.00  -0.19   0.06
  21   6     0.02  -0.15  -0.03    -0.03  -0.02   0.03     0.00  -0.04   0.06
  22   6     0.15   0.06  -0.03    -0.09  -0.08   0.03     0.01  -0.01   0.04
  23   6     0.16   0.10   0.01    -0.08  -0.03   0.05     0.11   0.06   0.04
  24   6     0.13   0.10  -0.03    -0.14  -0.02   0.00     0.02   0.01   0.04
  25   6    -0.13   0.10  -0.03    -0.14   0.02  -0.01    -0.02   0.01   0.04
  26   6    -0.16   0.10   0.01    -0.08   0.04  -0.05    -0.11   0.06   0.04
  27   6    -0.15   0.06  -0.03    -0.09   0.08  -0.03    -0.01  -0.01   0.04
  28   6    -0.02  -0.15  -0.03    -0.03   0.02  -0.03     0.00  -0.04   0.06
  29   6     0.07   0.04   0.01     0.09   0.06   0.14     0.12   0.09   0.05
  30   6     0.05  -0.02   0.03    -0.03  -0.03  -0.01    -0.01  -0.11   0.00
  31   6     0.14   0.08  -0.06    -0.08  -0.08   0.03    -0.05  -0.05   0.05
  32   6     0.15   0.08  -0.06    -0.08  -0.06  -0.02    -0.03  -0.02   0.04
  33   6     0.02   0.05   0.01     0.09  -0.04  -0.15    -0.06   0.04  -0.02
  34   6     0.00   0.00   0.05     0.10  -0.02  -0.17     0.03   0.01  -0.18
  35   6    -0.01  -0.01   0.06     0.04   0.02   0.05    -0.01   0.01  -0.19
  36   6    -0.05  -0.02   0.03    -0.03   0.03   0.01     0.01  -0.11   0.00
  37   6     0.00  -0.09   0.02    -0.02  -0.00   0.00    -0.00  -0.20   0.08
  38   6     0.00  -0.18   0.02    -0.03  -0.00   0.00     0.00  -0.19   0.06
  39   6     0.02  -0.15  -0.03    -0.03  -0.02   0.03     0.00  -0.04   0.06
  40   6     0.15   0.06  -0.03    -0.09  -0.08   0.03     0.01  -0.01   0.04
  41   6     0.13   0.10  -0.03    -0.14  -0.02   0.00     0.02   0.01   0.04
  42   6    -0.13   0.10  -0.03    -0.14   0.02  -0.01    -0.02   0.01   0.04
  43   6    -0.16   0.10   0.01    -0.08   0.04  -0.05    -0.11   0.06   0.04
  44   6    -0.07   0.04   0.01     0.09  -0.06  -0.14    -0.12   0.09   0.05
  45   6    -0.03  -0.04   0.01     0.09  -0.09  -0.14    -0.08   0.09   0.04
  46   6    -0.01  -0.01   0.05     0.11  -0.05  -0.12     0.00   0.01  -0.14
  47   6     0.01  -0.01   0.05     0.11   0.05   0.12    -0.00   0.01  -0.14
  48   6    -0.00   0.00   0.05     0.10   0.02   0.17    -0.03   0.01  -0.18
  49   6    -0.14   0.08  -0.06    -0.08   0.08  -0.03     0.04  -0.05   0.05
  50   6    -0.15   0.08  -0.06    -0.08   0.06   0.02     0.03  -0.02   0.04
  51   6    -0.02   0.05   0.01     0.09   0.04   0.15     0.06   0.04  -0.02
  52   6     0.07   0.04   0.01     0.09   0.06   0.14     0.12   0.09   0.05
  53   6     0.03  -0.04   0.01     0.09   0.09   0.14     0.08   0.09   0.04
  54   6    -0.00  -0.16  -0.06     0.04   0.01   0.04     0.02   0.10   0.09
  55   6     0.00  -0.16  -0.06     0.04  -0.01  -0.05    -0.02   0.10   0.09
  56   6    -0.02  -0.15  -0.03    -0.03   0.02  -0.03     0.00  -0.04   0.06
  57   6    -0.15   0.06  -0.03    -0.09   0.08  -0.03    -0.01  -0.01   0.04
  58   6     0.16   0.10   0.01    -0.08  -0.03   0.05     0.11   0.06   0.04
  59   6    -0.15   0.08  -0.06    -0.08   0.06   0.02     0.03  -0.02   0.04
  60   6     0.01  -0.01   0.06     0.04  -0.02  -0.04     0.01   0.01  -0.19
                     10                     11                     12
                        a                      a                      a 
 Frequencies --   340.7205               340.7546               340.8251
 Red. masses --    12.0110                12.0110                12.0110
 Frc consts  --     0.0000                 0.0000                 0.0000
 IR Inten    --     0.0051                 0.0025                 0.0031
 Raman Activ --     0.0000                 0.0000                 0.0000
 Depolar     --     0.0000                 0.0000                 0.0000
 Atom AN      X      Y      Z        X      Y      Z        X      Y      Z
   1   6     0.01   0.00  -0.05    -0.08  -0.04   0.06     0.07   0.05  -0.09
   2   6    -0.01   0.00  -0.05    -0.08   0.04  -0.07     0.07  -0.05   0.09
   3   6    -0.08   0.04  -0.00    -0.01   0.00  -0.06     0.06  -0.04   0.12
   4   6     0.00   0.11   0.18     0.01  -0.00  -0.02    -0.00  -0.05   0.01
   5   6    -0.00   0.11   0.18     0.01   0.00   0.02    -0.00   0.06  -0.01
   6   6     0.08   0.04  -0.00    -0.01  -0.00   0.06     0.06   0.04  -0.12
   7   6     0.01  -0.02  -0.02    -0.10  -0.11   0.12     0.07   0.06  -0.08
   8   6    -0.00  -0.09   0.05    -0.08  -0.00   0.00     0.05  -0.00   0.00
   9   6    -0.01  -0.02  -0.02    -0.10   0.11  -0.12     0.07  -0.06   0.08
  10   6    -0.03  -0.02  -0.06    -0.09   0.16  -0.09     0.08  -0.02   0.09
  11   6    -0.17   0.01  -0.10     0.05   0.02   0.01     0.07  -0.04   0.10
  12   6    -0.01   0.10   0.12     0.00  -0.01  -0.03    -0.07  -0.12  -0.07
  13   6     0.01   0.10   0.11    -0.06  -0.05  -0.01    -0.09  -0.11  -0.04
  14   6    -0.01   0.10   0.11    -0.06   0.05   0.01    -0.09   0.11   0.04
  15   6     0.01   0.10   0.12     0.00   0.01   0.03    -0.07   0.12   0.08
  16   6     0.13   0.00  -0.05     0.06  -0.02  -0.03    -0.06   0.10   0.05
  17   6     0.17   0.01  -0.10     0.05  -0.02  -0.01     0.07   0.04  -0.10
  18   6     0.14   0.03  -0.10     0.08  -0.05   0.02     0.12   0.03  -0.10
  19   6     0.03  -0.02  -0.06    -0.09  -0.16   0.09     0.08   0.02  -0.09
  20   6     0.00  -0.13   0.05    -0.06  -0.00   0.00    -0.06  -0.00   0.00
  21   6    -0.01  -0.07   0.05    -0.08  -0.14  -0.01    -0.09  -0.14  -0.03
  22   6    -0.05  -0.08  -0.03    -0.07  -0.16   0.05    -0.09  -0.11  -0.04
  23   6    -0.09  -0.08  -0.04     0.11  -0.03   0.03    -0.09  -0.09  -0.05
  24   6     0.01  -0.03  -0.06     0.24   0.01   0.00     0.03  -0.02  -0.05
  25   6    -0.01  -0.03  -0.06     0.24  -0.01  -0.00     0.03   0.02   0.05
  26   6     0.09  -0.08  -0.04     0.11   0.03  -0.03    -0.09   0.09   0.05
  27   6     0.06  -0.08  -0.03    -0.07   0.16  -0.05    -0.09   0.11   0.04
  28   6     0.01  -0.07   0.05    -0.08   0.14   0.01    -0.09   0.14   0.03
  29   6    -0.13   0.00  -0.05     0.06   0.02   0.03    -0.07  -0.10  -0.05
  30   6     0.01  -0.02  -0.02    -0.10  -0.11   0.12     0.07   0.06  -0.08
  31   6     0.03  -0.02  -0.06    -0.09  -0.16   0.09     0.08   0.02  -0.09
  32   6     0.14   0.03  -0.10     0.08  -0.05   0.02     0.12   0.03  -0.10
  33   6     0.17   0.01  -0.10     0.05  -0.02  -0.01     0.07   0.04  -0.10
  34   6     0.08   0.04  -0.00    -0.01  -0.00   0.06     0.06   0.04  -0.12
  35   6    -0.01   0.00  -0.05    -0.08   0.04  -0.07     0.07  -0.05   0.09
  36   6    -0.01  -0.02  -0.02    -0.10   0.11  -0.12     0.07  -0.06   0.08
  37   6    -0.00  -0.09   0.05    -0.08  -0.00   0.00     0.05  -0.00   0.00
  38   6     0.00  -0.13   0.05    -0.06  -0.00   0.00    -0.06  -0.00   0.00
  39   6    -0.01  -0.07   0.05    -0.08  -0.14  -0.01    -0.09  -0.14  -0.03
  40   6    -0.05  -0.08  -0.03    -0.07  -0.16   0.05    -0.09  -0.11  -0.04
  41   6     0.01  -0.03  -0.06     0.24   0.01   0.00     0.03  -0.02  -0.05
  42   6    -0.01  -0.03  -0.06     0.24  -0.01  -0.00     0.03   0.02   0.05
  43   6     0.09  -0.08  -0.04     0.11   0.03  -0.03    -0.09   0.09   0.05
  44   6     0.13   0.00  -0.05     0.06  -0.02  -0.03    -0.06   0.10   0.05
  45   6     0.01   0.10   0.12     0.00   0.01   0.03    -0.07   0.12   0.08
  46   6    -0.00   0.11   0.18     0.01   0.00   0.02    -0.00   0.06  -0.01
  47   6     0.00   0.11   0.18     0.01  -0.00  -0.02    -0.00  -0.05   0.01
  48   6    -0.08   0.04  -0.00    -0.01   0.00  -0.06     0.06  -0.04   0.12
  49   6    -0.03  -0.02  -0.06    -0.09   0.16  -0.09     0.08  -0.02   0.09
  50   6    -0.14   0.03  -0.10     0.08   0.05  -0.02     0.12  -0.03   0.10
  51   6    -0.17   0.01  -0.10     0.05   0.02   0.01     0.07  -0.04   0.10
  52   6    -0.13   0.00  -0.05     0.06   0.02   0.03    -0.07  -0.10  -0.05
  53   6    -0.01   0.10   0.12     0.00  -0.01  -0.03    -0.07  -0.12  -0.07
  54   6     0.01   0.10   0.11    -0.06  -0.05  -0.01    -0.09  -0.11  -0.04
  55   6    -0.01   0.10   0.11    -0.06   0.05   0.01    -0.09   0.11   0.04
  56   6     0.01  -0.07   0.05    -0.08   0.14   0.01    -0.09   0.14   0.03
  57   6     0.06  -0.08  -0.03    -0.07   0.16  -0.05    -0.09   0.11   0.04
  58   6    -0.09  -0.08  -0.04     0.11  -0.03   0.03    -0.09  -0.09  -0.05
  59   6    -0.14   0.03  -0.10     0.08   0.05  -0.02     0.12  -0.03   0.10
  60   6     0.01   0.00  -0.05    -0.08  -0.04   0.06     0.07   0.05  -0.09
                     13                     14                     15
                        a                      a                      a 
 Frequencies --   392.3354               392.4067               392.4276
 Red. masses --    12.0110                12.0110                12.0110
 Frc consts  --     0.0000                 0.0000                 0.0000
 IR Inten    --     0.0037                 0.0022                 0.0023
 Raman Activ --     0.0000                 0.0000                 0.0000
 Depolar     --     0.0000                 0.0000                 0.0000
 Atom AN      X      Y      Z        X      Y      Z        X      Y      Z
   1   6     0.06  -0.06   0.01     0.17   0.05   0.05    -0.02   0.04   0.03
   2   6     0.06   0.06  -0.01     0.17  -0.05  -0.05     0.02   0.04   0.03
   3   6     0.08   0.08  -0.08     0.14  -0.04  -0.06     0.10  -0.03  -0.03
   4   6     0.08   0.07  -0.05     0.08  -0.04  -0.01     0.02  -0.10  -0.00
   5   6     0.08  -0.07   0.05     0.08   0.04   0.01    -0.02  -0.10  -0.00
   6   6     0.08  -0.08   0.08     0.13   0.04   0.05    -0.11  -0.03  -0.03
   7   6    -0.02  -0.01  -0.04     0.04   0.08   0.08    -0.05   0.09   0.03
   8   6    -0.03   0.00   0.00    -0.04   0.00   0.00     0.00   0.08   0.13
   9   6    -0.02   0.01   0.04     0.04  -0.08  -0.08     0.05   0.09   0.03
  10   6     0.00   0.05   0.11     0.00  -0.10  -0.13     0.05   0.09  -0.01
  11   6     0.06   0.15  -0.07     0.08  -0.04  -0.09     0.10  -0.01  -0.08
  12   6     0.03   0.11  -0.08    -0.03  -0.00  -0.01     0.05  -0.09   0.05
  13   6    -0.03   0.05  -0.07    -0.14  -0.01   0.03     0.01  -0.05   0.16
  14   6    -0.03  -0.05   0.07    -0.14   0.01  -0.02    -0.00  -0.05   0.16
  15   6     0.03  -0.11   0.08    -0.03  -0.00   0.02    -0.05  -0.09   0.05
  16   6     0.03  -0.15   0.12     0.01  -0.02  -0.03    -0.06  -0.02  -0.07
  17   6     0.06  -0.15   0.07     0.08   0.04   0.09    -0.10  -0.01  -0.08
  18   6     0.02  -0.07  -0.04    -0.00   0.09   0.10    -0.10   0.05  -0.15
  19   6     0.00  -0.05  -0.11    -0.00   0.10   0.13    -0.05   0.09  -0.02
  20   6    -0.14   0.00   0.00    -0.14  -0.00   0.00     0.00  -0.00   0.18
  21   6    -0.09   0.02  -0.10    -0.16   0.03   0.05     0.00  -0.03   0.16
  22   6    -0.08   0.03  -0.15    -0.08   0.09   0.13    -0.02   0.02   0.02
  23   6    -0.03   0.09  -0.14    -0.01   0.07   0.06     0.01  -0.03  -0.09
  24   6    -0.02  -0.00  -0.03    -0.02   0.04   0.07    -0.03   0.02  -0.19
  25   6    -0.02   0.00   0.03    -0.02  -0.04  -0.08     0.03   0.02  -0.19
  26   6    -0.03  -0.09   0.14    -0.01  -0.07  -0.06    -0.01  -0.03  -0.09
  27   6    -0.08  -0.03   0.15    -0.08  -0.09  -0.13     0.03   0.02   0.03
  28   6    -0.09  -0.02   0.10    -0.15  -0.03  -0.05     0.00  -0.02   0.16
  29   6     0.03   0.15  -0.12     0.01   0.02   0.03     0.06  -0.02  -0.07
  30   6    -0.02  -0.01  -0.04     0.04   0.08   0.08    -0.05   0.09   0.03
  31   6     0.00  -0.05  -0.11    -0.00   0.10   0.13    -0.05   0.09  -0.02
  32   6     0.02  -0.07  -0.04    -0.00   0.09   0.10    -0.10   0.05  -0.15
  33   6     0.06  -0.15   0.07     0.08   0.04   0.09    -0.10  -0.01  -0.08
  34   6     0.08  -0.08   0.08     0.13   0.04   0.05    -0.11  -0.03  -0.03
  35   6     0.06   0.06  -0.01     0.17  -0.05  -0.05     0.02   0.04   0.03
  36   6    -0.02   0.01   0.04     0.04  -0.08  -0.08     0.05   0.09   0.03
  37   6    -0.03   0.00   0.00    -0.04   0.00   0.00     0.00   0.08   0.13
  38   6    -0.14   0.00   0.00    -0.14  -0.00   0.00     0.00  -0.00   0.18
  39   6    -0.09   0.02  -0.10    -0.16   0.03   0.05     0.00  -0.03   0.16
  40   6    -0.08   0.03  -0.15    -0.08   0.09   0.13    -0.02   0.02   0.02
  41   6    -0.02  -0.00  -0.03    -0.02   0.04   0.07    -0.03   0.02  -0.19
  42   6    -0.02   0.00   0.03    -0.02  -0.04  -0.08     0.03   0.02  -0.19
  43   6    -0.03  -0.09   0.14    -0.01  -0.07  -0.06    -0.01  -0.03  -0.09
  44   6     0.03  -0.15   0.12     0.01  -0.02  -0.03    -0.06  -0.02  -0.07
  45   6     0.03  -0.11   0.08    -0.03  -0.00   0.02    -0.05  -0.09   0.05
  46   6     0.08  -0.07   0.05     0.08   0.04   0.01    -0.02  -0.10  -0.00
  47   6     0.08   0.07  -0.05     0.08  -0.04  -0.01     0.02  -0.10  -0.00
  48   6     0.08   0.08  -0.08     0.14  -0.04  -0.06     0.10  -0.03  -0.03
  49   6     0.00   0.05   0.11     0.00  -0.10  -0.13     0.05   0.09  -0.01
  50   6     0.02   0.07   0.04     0.00  -0.08  -0.11     0.10   0.05  -0.15
  51   6     0.06   0.15  -0.07     0.08  -0.04  -0.09     0.10  -0.01  -0.08
  52   6     0.03   0.15  -0.12     0.01   0.02   0.03     0.06  -0.02  -0.07
  53   6     0.03   0.11  -0.08    -0.03  -0.00  -0.01     0.05  -0.09   0.05
  54   6    -0.03   0.05  -0.07    -0.14  -0.01   0.03     0.01  -0.05   0.16
  55   6    -0.03  -0.05   0.07    -0.14   0.01  -0.02    -0.00  -0.05   0.16
  56   6    -0.09  -0.02   0.10    -0.15  -0.03  -0.05     0.00  -0.02   0.16
  57   6    -0.08  -0.03   0.15    -0.08  -0.09  -0.13     0.03   0.02   0.03
  58   6    -0.03   0.09  -0.14    -0.01   0.07   0.06     0.01  -0.03  -0.09
  59   6     0.02   0.07   0.04     0.00  -0.08  -0.11     0.10   0.05  -0.15
  60   6     0.06  -0.06   0.01     0.17   0.05   0.05    -0.02   0.04   0.03
                     16                     17                     18
                        a                      a                      a 
 Frequencies --   392.4321               392.4720               417.1767
 Red. masses --    12.0110                12.0110                12.0110
 Frc consts  --     0.0000                 0.0000                 0.0000
 IR Inten    --     0.0017                 0.0050                 0.0001
 Raman Activ --     0.0000                 0.0000                 0.0000
 Depolar     --     0.0000                 0.0000                 0.0000
 Atom AN      X      Y      Z        X      Y      Z        X      Y      Z
   1   6     0.01   0.15   0.08    -0.10   0.04   0.01    -0.01  -0.01   0.12
   2   6    -0.00   0.15   0.08    -0.10  -0.04  -0.01     0.01  -0.01   0.12
   3   6    -0.00   0.14  -0.00     0.02  -0.10  -0.02     0.05  -0.03   0.09
   4   6     0.01   0.15  -0.08     0.14  -0.04  -0.03    -0.01  -0.06  -0.07
   5   6    -0.01   0.15  -0.08     0.14   0.04   0.03     0.01  -0.06  -0.08
   6   6     0.01   0.14   0.00     0.02   0.10   0.02    -0.05  -0.03   0.08
   7   6     0.03   0.10   0.11    -0.17   0.06   0.01     0.03   0.10  -0.05
   8   6    -0.00   0.10   0.07    -0.21  -0.00  -0.00     0.00   0.13  -0.12
   9   6    -0.03   0.09   0.11    -0.17  -0.06  -0.01    -0.03   0.09  -0.05
  10   6    -0.06  -0.06   0.05    -0.11  -0.08   0.04    -0.04   0.08  -0.04
  11   6     0.00  -0.03  -0.02     0.05  -0.12   0.01     0.04  -0.03   0.06
  12   6     0.09   0.06  -0.09     0.15  -0.07  -0.06    -0.08  -0.06  -0.12
  13   6     0.02   0.02  -0.04     0.14  -0.03  -0.03     0.01   0.17   0.05
  14   6    -0.02   0.03  -0.04     0.14   0.03   0.03    -0.01   0.18   0.05
  15   6    -0.09   0.06  -0.09     0.15   0.07   0.06     0.08  -0.06  -0.12
  16   6    -0.08  -0.05  -0.04     0.11   0.12   0.05     0.09  -0.08  -0.06
  17   6    -0.00  -0.03  -0.02     0.05   0.12  -0.01    -0.04  -0.04   0.06
  18   6     0.05  -0.08  -0.00    -0.03   0.12  -0.03    -0.11  -0.00   0.04
  19   6     0.06  -0.05   0.05    -0.11   0.08  -0.04     0.04   0.08  -0.03
  20   6    -0.00   0.04   0.06    -0.09  -0.00  -0.00     0.00  -0.15  -0.03
  21   6     0.05  -0.04  -0.01    -0.01   0.03  -0.06    -0.01  -0.16  -0.03
  22   6     0.07  -0.10   0.04    -0.02   0.03  -0.04     0.11   0.08  -0.02
  23   6     0.11  -0.15  -0.03     0.01  -0.01  -0.06     0.07   0.07   0.04
  24   6     0.05  -0.18  -0.03    -0.03   0.00  -0.04    -0.12   0.01   0.03
  25   6    -0.05  -0.18  -0.03    -0.03  -0.00   0.04    -0.11  -0.01  -0.03
  26   6    -0.11  -0.15  -0.03     0.01   0.01   0.06     0.07  -0.07  -0.04
  27   6    -0.07  -0.10   0.04    -0.02  -0.03   0.04     0.11  -0.08   0.02
  28   6    -0.06  -0.04  -0.01    -0.01  -0.02   0.06    -0.01   0.17   0.03
  29   6     0.08  -0.05  -0.04     0.11  -0.12  -0.05    -0.09  -0.08  -0.06
  30   6     0.03   0.10   0.11    -0.17   0.06   0.01    -0.03  -0.10   0.05
  31   6     0.06  -0.05   0.05    -0.11   0.08  -0.04    -0.04  -0.08   0.03
  32   6     0.05  -0.08  -0.00    -0.03   0.12  -0.03     0.11   0.00  -0.04
  33   6    -0.00  -0.03  -0.02     0.05   0.12  -0.01     0.04   0.04  -0.06
  34   6     0.01   0.14   0.00     0.02   0.10   0.02     0.05   0.03  -0.08
  35   6    -0.00   0.15   0.08    -0.10  -0.04  -0.01    -0.01   0.01  -0.12
  36   6    -0.03   0.09   0.11    -0.17  -0.06  -0.01     0.03  -0.09   0.05
  37   6    -0.00   0.10   0.07    -0.21  -0.00  -0.00    -0.00  -0.13   0.12
  38   6    -0.00   0.04   0.06    -0.09  -0.00  -0.00    -0.00   0.15   0.03
  39   6     0.05  -0.04  -0.01    -0.01   0.02  -0.06     0.01   0.16   0.03
  40   6     0.07  -0.10   0.04    -0.02   0.03  -0.04    -0.11  -0.08   0.02
  41   6     0.05  -0.18  -0.03    -0.03   0.00  -0.04     0.12  -0.01  -0.03
  42   6    -0.05  -0.18  -0.03    -0.03  -0.00   0.04     0.11   0.01   0.03
  43   6    -0.11  -0.15  -0.03     0.01   0.01   0.06    -0.07   0.07   0.04
  44   6    -0.08  -0.05  -0.04     0.11   0.12   0.05    -0.09   0.08   0.06
  45   6    -0.09   0.06  -0.09     0.15   0.07   0.06    -0.08   0.06   0.12
  46   6    -0.01   0.15  -0.08     0.14   0.04   0.03    -0.01   0.06   0.08
  47   6     0.01   0.15  -0.08     0.14  -0.04  -0.03     0.01   0.06   0.07
  48   6    -0.00   0.14  -0.00     0.02  -0.10  -0.02    -0.05   0.03  -0.09
  49   6    -0.06  -0.06   0.05    -0.11  -0.08   0.04     0.04  -0.08   0.04
  50   6    -0.05  -0.08  -0.01    -0.03  -0.12   0.03    -0.10  -0.00  -0.04
  51   6     0.00  -0.03  -0.02     0.05  -0.12   0.01    -0.04   0.03  -0.06
  52   6     0.08  -0.05  -0.04     0.11  -0.12  -0.05     0.09   0.08   0.06
  53   6     0.09   0.06  -0.09     0.15  -0.07  -0.06     0.08   0.06   0.12
  54   6     0.02   0.02  -0.04     0.14  -0.03  -0.03    -0.01  -0.17  -0.05
  55   6    -0.02   0.03  -0.04     0.14   0.03   0.03     0.01  -0.18  -0.05
  56   6    -0.06  -0.04  -0.01    -0.01  -0.02   0.06     0.01  -0.17  -0.03
  57   6    -0.07  -0.10   0.04    -0.02  -0.03   0.04    -0.11   0.08  -0.02
  58   6     0.11  -0.15  -0.03     0.01  -0.01  -0.06    -0.07  -0.07  -0.04
  59   6    -0.05  -0.08  -0.01    -0.03  -0.12   0.03     0.10   0.00   0.04
  60   6     0.01   0.15   0.08    -0.10   0.04   0.01     0.01   0.01  -0.12
                     19                     20                     21
                        a                      a                      a 
 Frequencies --   417.1794               417.1820               417.1944
 Red. masses --    12.0110                12.0110                12.0110
 Frc consts  --     0.0000                 0.0000                 0.0000
 IR Inten    --     0.0001                 0.0000                 0.0001
 Raman Activ --     0.0000                 0.0000                 0.0000
 Depolar     --     0.0000                 0.0000                 0.0000
 Atom AN      X      Y      Z        X      Y      Z        X      Y      Z
   1   6    -0.02  -0.10   0.20    -0.05   0.03   0.02     0.01   0.01  -0.04
   2   6    -0.01  -0.10   0.15    -0.05   0.04  -0.13    -0.00   0.01  -0.04
   3   6    -0.10  -0.04  -0.17    -0.04   0.01  -0.15     0.04  -0.01  -0.01
   4   6    -0.03  -0.02  -0.13    -0.06  -0.02  -0.10     0.00  -0.04  -0.12
   5   6    -0.01  -0.01  -0.06    -0.06   0.01   0.14     0.00  -0.05  -0.14
   6   6     0.06  -0.04  -0.05    -0.10   0.02   0.23    -0.03  -0.01  -0.03
   7   6    -0.01  -0.08   0.13     0.01   0.01   0.01     0.03  -0.06   0.03
   8   6    -0.00  -0.04   0.08    -0.00   0.00  -0.02    -0.00  -0.18   0.09
   9   6     0.01  -0.07   0.10    -0.00   0.03  -0.08    -0.03  -0.06   0.04
  10   6    -0.07   0.06  -0.02     0.12  -0.05   0.07    -0.14   0.12  -0.06
  11   6    -0.10  -0.00  -0.13     0.04  -0.02  -0.03     0.16   0.05   0.14
  12   6     0.02   0.07   0.01    -0.01  -0.00  -0.03     0.06   0.01   0.00
  13   6     0.02   0.16   0.10     0.05   0.07  -0.00    -0.01  -0.05  -0.02
  14   6     0.01   0.09   0.08     0.05  -0.15  -0.05     0.00  -0.04  -0.02
  15   6    -0.03   0.06   0.03    -0.00  -0.04   0.02    -0.06   0.01  -0.00
  16   6    -0.00   0.04  -0.01    -0.01  -0.01   0.01    -0.17   0.08   0.14
  17   6     0.10   0.01  -0.08    -0.04   0.03   0.11    -0.16   0.04   0.13
  18   6     0.10   0.04  -0.09     0.19   0.07  -0.06     0.04   0.06   0.00
  19   6     0.13   0.08  -0.06     0.07   0.02  -0.05     0.12   0.12  -0.05
  20   6    -0.02   0.17  -0.01    -0.05  -0.07   0.01     0.00  -0.15   0.06
  21   6     0.00   0.02  -0.04    -0.08  -0.21  -0.01     0.04  -0.02   0.02
  22   6     0.04   0.06  -0.03    -0.01  -0.08  -0.02     0.12   0.13  -0.04
  23   6    -0.08  -0.02  -0.02     0.07   0.00  -0.00     0.03   0.03  -0.05
  24   6    -0.10   0.00  -0.03     0.18   0.06  -0.04     0.04   0.01  -0.00
  25   6    -0.18   0.03   0.01    -0.09   0.05  -0.05     0.05  -0.01   0.01
  26   6    -0.10   0.01   0.01    -0.00  -0.02  -0.01     0.03  -0.03   0.05
  27   6     0.05  -0.10   0.02     0.00  -0.05  -0.02     0.12  -0.12   0.04
  28   6     0.05  -0.13   0.03     0.07  -0.16  -0.04     0.03   0.04  -0.01
  29   6     0.00   0.04  -0.01     0.01  -0.01   0.01     0.17   0.08   0.14
  30   6     0.01   0.08  -0.13    -0.01  -0.01  -0.01    -0.03   0.06  -0.03
  31   6    -0.13  -0.08   0.06    -0.07  -0.02   0.05    -0.12  -0.12   0.05
  32   6    -0.10  -0.04   0.09    -0.19  -0.07   0.06    -0.04  -0.06  -0.00
  33   6    -0.10  -0.01   0.08     0.04  -0.03  -0.11     0.16  -0.04  -0.13
  34   6    -0.06   0.04   0.05     0.10  -0.02  -0.23     0.03   0.01   0.03
  35   6     0.01   0.10  -0.15     0.05  -0.04   0.13     0.00  -0.01   0.04
  36   6    -0.01   0.07  -0.10     0.00  -0.03   0.08     0.03   0.06  -0.04
  37   6     0.00   0.04  -0.08     0.00  -0.00   0.02     0.00   0.18  -0.09
  38   6     0.02  -0.17   0.01     0.05   0.07  -0.01    -0.00   0.15  -0.06
  39   6    -0.00  -0.02   0.04     0.08   0.21   0.01    -0.04   0.02  -0.02
  40   6    -0.04  -0.06   0.03     0.01   0.08   0.02    -0.12  -0.13   0.04
  41   6     0.10  -0.00   0.03    -0.18  -0.06   0.04    -0.04  -0.01   0.00
  42   6     0.18  -0.03  -0.01     0.09  -0.05   0.05    -0.05   0.01  -0.01
  43   6     0.10  -0.01  -0.01     0.00   0.02   0.01    -0.03   0.03  -0.05
  44   6     0.00  -0.04   0.01     0.01   0.01  -0.01     0.17  -0.08  -0.14
  45   6     0.03  -0.06  -0.03     0.00   0.04  -0.02     0.06  -0.01   0.00
  46   6     0.01   0.01   0.06     0.06  -0.01  -0.14    -0.00   0.05   0.14
  47   6     0.03   0.02   0.13     0.06   0.02   0.10    -0.00   0.04   0.12
  48   6     0.10   0.04   0.17     0.04  -0.01   0.15    -0.04   0.01   0.01
  49   6     0.07  -0.06   0.02    -0.12   0.05  -0.07     0.14  -0.12   0.06
  50   6    -0.02   0.00   0.04    -0.21   0.08  -0.11     0.07  -0.07   0.01
  51   6     0.10   0.00   0.13    -0.04   0.02   0.03    -0.16  -0.05  -0.14
  52   6    -0.00  -0.04   0.01    -0.01   0.01  -0.01    -0.17  -0.08  -0.14
  53   6    -0.02  -0.07  -0.01     0.01   0.00   0.03    -0.06  -0.01  -0.00
  54   6    -0.02  -0.16  -0.10    -0.05  -0.07   0.00     0.01   0.05   0.02
  55   6    -0.01  -0.09  -0.08    -0.05   0.15   0.05    -0.00   0.04   0.02
  56   6    -0.05   0.13  -0.03    -0.07   0.16   0.04    -0.03  -0.04   0.01
  57   6    -0.05   0.10  -0.02    -0.00   0.05   0.02    -0.12   0.12  -0.04
  58   6     0.08   0.02   0.02    -0.07  -0.00   0.00    -0.03  -0.03   0.05
  59   6     0.02  -0.00  -0.04     0.21  -0.08   0.11    -0.07   0.07  -0.01
  60   6     0.02   0.10  -0.20     0.05  -0.03  -0.02    -0.01  -0.01   0.04
                     22                     23                     24
                        a                      a                      a 
 Frequencies --   417.4368               477.9902               477.9964
 Red. masses --    12.0110                12.0110                12.0110
 Frc consts  --     0.0000                 0.0000                 0.0000
 IR Inten    --     0.0001                 0.0003                 0.0001
 Raman Activ --     0.0000                 0.0000                 0.0000
 Depolar     --     0.0000                 0.0000                 0.0000
 Atom AN      X      Y      Z        X      Y      Z        X      Y      Z
   1   6    -0.05  -0.07   0.08    -0.08  -0.06   0.13     0.01   0.01  -0.13
   2   6    -0.05   0.07  -0.08    -0.08   0.06  -0.13    -0.01   0.01  -0.13
   3   6     0.02   0.03   0.04    -0.05   0.02  -0.20    -0.02   0.00  -0.11
   4   6     0.07   0.07   0.13     0.01   0.02  -0.08    -0.00   0.01  -0.06
   5   6     0.07  -0.07  -0.13     0.01  -0.02   0.08     0.00   0.01  -0.06
   6   6     0.02  -0.03  -0.04    -0.05  -0.02   0.20     0.02   0.00  -0.10
   7   6    -0.08  -0.13   0.14    -0.06  -0.03   0.06    -0.04  -0.09   0.05
   8   6    -0.05   0.00  -0.00    -0.03  -0.00   0.00    -0.00  -0.04  -0.00
   9   6    -0.08   0.13  -0.14    -0.06   0.04  -0.06     0.03  -0.09   0.05
  10   6    -0.02   0.04  -0.07     0.01  -0.04   0.02     0.10  -0.07   0.13
  11   6     0.00   0.01   0.01     0.05   0.04  -0.03     0.07   0.01   0.05
  12   6     0.08   0.13   0.16     0.05   0.04  -0.01     0.04   0.07   0.06
  13   6     0.04   0.04   0.05    -0.07  -0.06  -0.02     0.01   0.12   0.12
  14   6     0.04  -0.03  -0.05    -0.07   0.06   0.02    -0.02   0.12   0.12
  15   6     0.08  -0.13  -0.16     0.05  -0.04   0.01    -0.04   0.07   0.06
  16   6    -0.00  -0.03  -0.07     0.17  -0.10  -0.08     0.03  -0.01  -0.03
  17   6     0.00  -0.01  -0.02     0.06  -0.04   0.03    -0.07   0.01   0.05
  18   6     0.00  -0.02   0.02     0.00   0.02  -0.02    -0.14  -0.04   0.13
  19   6    -0.02  -0.04   0.07     0.01   0.05  -0.02    -0.10  -0.07   0.13
  20   6     0.01   0.00  -0.00     0.07  -0.00   0.00     0.00   0.12  -0.06
  21   6     0.02  -0.01  -0.02     0.11   0.19   0.02     0.03   0.10  -0.05
  22   6     0.10   0.08   0.02     0.07   0.12  -0.04     0.09   0.10   0.06
  23   6     0.20   0.12   0.01    -0.14  -0.04  -0.04     0.14   0.10   0.07
  24   6     0.12   0.07   0.00    -0.06  -0.00  -0.03     0.05   0.03   0.06
  25   6    -0.12   0.07   0.00     0.05  -0.00  -0.03     0.05  -0.03  -0.06
  26   6    -0.20   0.12   0.01     0.14  -0.04  -0.04     0.15  -0.10  -0.07
  27   6    -0.10   0.08   0.02    -0.07   0.12  -0.03     0.08  -0.09  -0.06
  28   6    -0.02  -0.01  -0.02    -0.11   0.19   0.01     0.03  -0.10   0.05
  29   6    -0.00   0.03   0.07     0.17   0.10   0.08    -0.03  -0.01  -0.03
  30   6     0.08   0.13  -0.14     0.06   0.03  -0.06     0.04   0.09  -0.05
  31   6     0.02   0.04  -0.07    -0.01  -0.05   0.02     0.10   0.07  -0.13
  32   6    -0.00   0.02  -0.02    -0.00  -0.02   0.02     0.14   0.04  -0.13
  33   6    -0.00   0.01   0.02    -0.06   0.04  -0.03     0.07  -0.01  -0.05
  34   6    -0.02   0.03   0.04     0.05   0.02  -0.20    -0.02  -0.00   0.10
  35   6     0.05  -0.07   0.08     0.08  -0.06   0.13     0.01  -0.01   0.13
  36   6     0.08  -0.13   0.14     0.06  -0.04   0.06    -0.03   0.09  -0.05
  37   6     0.05  -0.00   0.00     0.03   0.00  -0.00     0.00   0.04   0.00
  38   6    -0.01  -0.00   0.00    -0.07   0.00  -0.00    -0.00  -0.12   0.06
  39   6    -0.02   0.01   0.02    -0.11  -0.19  -0.02    -0.03  -0.10   0.05
  40   6    -0.10  -0.08  -0.03    -0.07  -0.12   0.04    -0.09  -0.10  -0.06
  41   6    -0.12  -0.07  -0.00     0.06   0.00   0.03    -0.05  -0.03  -0.06
  42   6     0.12  -0.07  -0.00    -0.05   0.00   0.03    -0.05   0.03   0.06
  43   6     0.20  -0.12  -0.01    -0.14   0.04   0.04    -0.15   0.10   0.07
  44   6     0.00   0.03   0.07    -0.17   0.10   0.08    -0.03   0.01   0.03
  45   6    -0.08   0.13   0.16    -0.05   0.04  -0.01     0.04  -0.07  -0.06
  46   6    -0.07   0.07   0.13    -0.01   0.02  -0.08    -0.00  -0.01   0.06
  47   6    -0.07  -0.07  -0.13    -0.01  -0.02   0.08     0.00  -0.01   0.06
  48   6    -0.02  -0.03  -0.04     0.05  -0.02   0.20     0.02  -0.00   0.11
  49   6     0.02  -0.04   0.07    -0.01   0.04  -0.02    -0.10   0.07  -0.13
  50   6    -0.00  -0.02   0.02    -0.00   0.02  -0.02    -0.13   0.04  -0.13
  51   6    -0.00  -0.01  -0.01    -0.05  -0.04   0.03    -0.07  -0.01  -0.05
  52   6     0.00  -0.03  -0.07    -0.17  -0.10  -0.08     0.03   0.01   0.03
  53   6    -0.08  -0.13  -0.16    -0.05  -0.04   0.01    -0.04  -0.07  -0.06
  54   6    -0.04  -0.04  -0.05     0.07   0.06   0.02    -0.01  -0.12  -0.12
  55   6    -0.04   0.04   0.05     0.07  -0.06  -0.02     0.02  -0.12  -0.12
  56   6     0.02   0.01   0.02     0.11  -0.19  -0.01    -0.03   0.10  -0.05
  57   6     0.10  -0.08  -0.02     0.07  -0.12   0.03    -0.08   0.09   0.06
  58   6    -0.20  -0.12  -0.01     0.14   0.04   0.04    -0.14  -0.10  -0.07
  59   6     0.00   0.02  -0.02     0.00  -0.02   0.02     0.13  -0.04   0.13
  60   6     0.05   0.07  -0.08     0.08   0.06  -0.13    -0.01  -0.01   0.13
                     25                     26                     27
                        a                      a                      a 
 Frequencies --   478.0126               478.2100               500.3594
 Red. masses --    12.0110                12.0110                12.0110
 Frc consts  --     0.0000                 0.0000                 0.0000
 IR Inten    --     0.0001                 0.0005                 0.3521
 Raman Activ --     0.0000                 0.0000                 0.0000
 Depolar     --     0.0000                 0.0000                 0.0000
 Atom AN      X      Y      Z        X      Y      Z        X      Y      Z
   1   6    -0.02  -0.01   0.14     0.06   0.02  -0.03    -0.01  -0.08   0.16
   2   6     0.02  -0.01   0.14     0.06  -0.02   0.03     0.01  -0.08   0.16
   3   6     0.06  -0.02   0.01    -0.06   0.05  -0.06    -0.10  -0.02  -0.17
   4   6    -0.01  -0.09  -0.21    -0.01   0.07   0.03    -0.00   0.03   0.00
   5   6     0.01  -0.09  -0.21    -0.01  -0.07  -0.03    -0.00   0.03   0.01
   6   6    -0.06  -0.02   0.01    -0.06  -0.05   0.06     0.10  -0.02  -0.17
   7   6    -0.01   0.06   0.03     0.10   0.12  -0.13     0.00   0.02   0.01
   8   6    -0.00   0.23  -0.09     0.07   0.00  -0.00     0.00   0.10  -0.07
   9   6     0.01   0.06   0.03     0.10  -0.12   0.13    -0.00   0.02   0.02
  10   6     0.02  -0.07   0.02     0.08  -0.13   0.06    -0.02   0.05  -0.01
  11   6     0.09  -0.00   0.04    -0.16   0.03  -0.14    -0.10  -0.01  -0.14
  12   6     0.05  -0.01  -0.04     0.06   0.16   0.13     0.08   0.09   0.12
  13   6     0.01   0.05   0.05     0.06   0.12   0.06    -0.00  -0.10  -0.03
  14   6    -0.02   0.05   0.05     0.06  -0.12  -0.06     0.00  -0.10  -0.03
  15   6    -0.05  -0.01  -0.04     0.06  -0.16  -0.13    -0.08   0.09   0.12
  16   6    -0.10   0.03   0.04    -0.02  -0.07  -0.01    -0.03   0.05   0.03
  17   6    -0.08  -0.00   0.04    -0.16  -0.03   0.14     0.10  -0.01  -0.14
  18   6     0.05  -0.04   0.00    -0.14  -0.00   0.06    -0.15  -0.05   0.04
  19   6    -0.02  -0.07   0.02     0.08   0.13  -0.06     0.02   0.05  -0.01
  20   6     0.00   0.20  -0.06    -0.02  -0.00   0.00     0.00  -0.04  -0.01
  21   6    -0.02  -0.02  -0.05    -0.03  -0.02  -0.02    -0.00  -0.07  -0.02
  22   6    -0.06  -0.12   0.00     0.02   0.08  -0.02     0.09   0.10  -0.02
  23   6    -0.02  -0.08  -0.01    -0.03   0.02  -0.00    -0.03   0.02   0.01
  24   6     0.22   0.00  -0.02    -0.07   0.02   0.02    -0.19  -0.06   0.04
  25   6     0.23  -0.00   0.02     0.07   0.02   0.02     0.19  -0.06   0.04
  26   6    -0.01   0.08   0.01     0.03   0.02  -0.00     0.03   0.02   0.01
  27   6    -0.06   0.12  -0.01    -0.02   0.08  -0.02    -0.09   0.10  -0.02
  28   6    -0.02   0.03   0.05     0.03  -0.02  -0.02     0.00  -0.07  -0.02
  29   6     0.11   0.04   0.04    -0.02   0.07   0.01     0.03   0.05   0.03
  30   6     0.01  -0.06  -0.03    -0.10  -0.12   0.13     0.00   0.02   0.01
  31   6     0.02   0.07  -0.02    -0.08  -0.13   0.06     0.02   0.05  -0.01
  32   6    -0.05   0.04  -0.00     0.14   0.00  -0.06    -0.15  -0.05   0.04
  33   6     0.08   0.00  -0.04     0.16   0.03  -0.14     0.10  -0.01  -0.14
  34   6     0.06   0.02  -0.01     0.06   0.05  -0.06     0.10  -0.02  -0.17
  35   6    -0.02   0.01  -0.14    -0.06   0.02  -0.03     0.01  -0.08   0.16
  36   6    -0.01  -0.06  -0.03    -0.10   0.12  -0.13    -0.00   0.02   0.02
  37   6     0.00  -0.23   0.09    -0.07  -0.00   0.00     0.00   0.10  -0.07
  38   6    -0.00  -0.20   0.06     0.02   0.00  -0.00     0.00  -0.04  -0.01
  39   6     0.02   0.02   0.05     0.03   0.03   0.02    -0.00  -0.07  -0.02
  40   6     0.06   0.12  -0.00    -0.02  -0.08   0.02     0.09   0.10  -0.02
  41   6    -0.22  -0.00   0.02     0.07  -0.02  -0.02    -0.19  -0.06   0.04
  42   6    -0.23   0.00  -0.02    -0.07  -0.02  -0.02     0.19  -0.06   0.04
  43   6     0.01  -0.08  -0.01    -0.03  -0.02   0.00     0.03   0.02   0.01
  44   6     0.10  -0.03  -0.04     0.02   0.07   0.01    -0.03   0.05   0.03
  45   6     0.05   0.01   0.04    -0.06   0.16   0.13    -0.08   0.09   0.12
  46   6    -0.01   0.09   0.21     0.01   0.07   0.03    -0.00   0.03   0.01
  47   6     0.01   0.09   0.21     0.01  -0.07  -0.03    -0.00   0.03   0.00
  48   6    -0.06   0.02  -0.01     0.06  -0.05   0.06    -0.10  -0.02  -0.17
  49   6    -0.02   0.07  -0.02    -0.08   0.13  -0.06    -0.02   0.05  -0.01
  50   6     0.05   0.04  -0.00     0.15  -0.00   0.06     0.15  -0.05   0.04
  51   6    -0.08   0.00  -0.04     0.16  -0.03   0.14    -0.10  -0.01  -0.14
  52   6    -0.11  -0.04  -0.04     0.02  -0.07  -0.01     0.03   0.05   0.03
  53   6    -0.05   0.01   0.04    -0.06  -0.16  -0.13     0.08   0.09   0.12
  54   6    -0.01  -0.05  -0.05    -0.06  -0.12  -0.06    -0.00  -0.10  -0.03
  55   6     0.02  -0.05  -0.05    -0.06   0.12   0.06     0.00  -0.10  -0.03
  56   6     0.02  -0.03  -0.05    -0.03   0.02   0.02     0.00  -0.07  -0.02
  57   6     0.06  -0.12   0.01     0.02  -0.08   0.02    -0.09   0.10  -0.02
  58   6     0.02   0.08   0.01     0.03  -0.02   0.00    -0.03   0.02   0.01
  59   6    -0.05  -0.04   0.00    -0.15   0.00  -0.06     0.15  -0.05   0.04
  60   6     0.02   0.01  -0.14    -0.06  -0.02   0.02    -0.01  -0.08   0.16
                     28                     29                     30
                        a                      a                      a 
 Frequencies --   500.4012               500.4575               528.2331
 Red. masses --    12.0110                12.0110                12.0110
 Frc consts  --     0.0000                 0.0000                 0.0000
 IR Inten    --     0.3329                 0.3374                 0.0048
 Raman Activ --     0.0000                 0.0000                 0.0000
 Depolar     --     0.0000                 0.0000                 0.0000
 Atom AN      X      Y      Z        X      Y      Z        X      Y      Z
   1   6     0.00  -0.00  -0.04    -0.04  -0.07   0.10     0.02  -0.03  -0.08
   2   6    -0.00   0.00  -0.04    -0.04   0.06  -0.10     0.02   0.02   0.08
   3   6    -0.00   0.00  -0.04     0.02   0.03   0.09     0.08   0.02   0.17
   4   6     0.00  -0.00  -0.04     0.07   0.07   0.19     0.11   0.06   0.12
   5   6    -0.00  -0.00  -0.04     0.07  -0.07  -0.19     0.11  -0.06  -0.12
   6   6     0.00   0.00  -0.04     0.03  -0.03  -0.09     0.08  -0.02  -0.17
   7   6    -0.01  -0.08   0.07    -0.05  -0.12   0.15    -0.02  -0.05  -0.02
   8   6    -0.00  -0.14   0.13    -0.03   0.00  -0.00     0.01   0.01  -0.00
   9   6     0.01  -0.08   0.07    -0.05   0.12  -0.15    -0.02   0.05   0.02
  10   6    -0.11   0.07  -0.07     0.12  -0.09   0.04    -0.09   0.04  -0.06
  11   6     0.07   0.03   0.07    -0.08  -0.02  -0.06    -0.08  -0.03  -0.06
  12   6     0.07   0.05   0.07     0.03   0.04   0.09    -0.00   0.03  -0.03
  13   6    -0.01  -0.14  -0.07    -0.04  -0.11  -0.03    -0.02   0.11   0.05
  14   6     0.01  -0.13  -0.07    -0.04   0.11   0.03    -0.02  -0.11  -0.05
  15   6    -0.07   0.05   0.07     0.03  -0.04  -0.09    -0.01  -0.03   0.03
  16   6    -0.12   0.07   0.13    -0.08   0.03   0.06    -0.15   0.09   0.16
  17   6    -0.07   0.03   0.07    -0.08   0.02   0.06    -0.08   0.03   0.06
  18   6     0.12   0.06  -0.07     0.02   0.03  -0.01     0.00   0.01   0.03
  19   6     0.11   0.07  -0.07     0.12   0.09  -0.04    -0.10  -0.05   0.06
  20   6    -0.00   0.22  -0.01    -0.03  -0.00  -0.00     0.03   0.00  -0.00
  21   6     0.01   0.08  -0.02    -0.05  -0.19  -0.03     0.03   0.17   0.06
  22   6    -0.06  -0.04  -0.02     0.12   0.10  -0.03    -0.07   0.01   0.02
  23   6    -0.19  -0.11  -0.01     0.02   0.03  -0.01     0.00  -0.02  -0.07
  24   6    -0.08  -0.04  -0.02    -0.04   0.00   0.00     0.18   0.01  -0.03
  25   6     0.08  -0.04  -0.02    -0.04  -0.00   0.00     0.18  -0.00   0.03
  26   6     0.19  -0.11  -0.01     0.02  -0.03   0.01    -0.00   0.02   0.07
  27   6     0.07  -0.04  -0.02     0.12  -0.10   0.03    -0.06  -0.02  -0.02
  28   6    -0.01   0.08  -0.02    -0.05   0.19   0.03     0.03  -0.17  -0.06
  29   6     0.12   0.07   0.13    -0.08  -0.03  -0.06    -0.15  -0.09  -0.16
  30   6    -0.01  -0.08   0.07    -0.05  -0.12   0.15    -0.02  -0.05  -0.02
  31   6     0.11   0.07  -0.07     0.12   0.09  -0.04    -0.10  -0.05   0.06
  32   6     0.12   0.06  -0.07     0.02   0.03  -0.01     0.00   0.01   0.03
  33   6    -0.07   0.03   0.07    -0.08   0.02   0.06    -0.08   0.03   0.06
  34   6     0.00   0.00  -0.04     0.03  -0.03  -0.09     0.08  -0.02  -0.17
  35   6    -0.00   0.00  -0.04    -0.04   0.06  -0.10     0.02   0.02   0.08
  36   6     0.01  -0.08   0.07    -0.05   0.12  -0.15    -0.02   0.05   0.02
  37   6    -0.00  -0.14   0.13    -0.03   0.00  -0.00     0.01   0.01  -0.00
  38   6    -0.00   0.22  -0.01    -0.03  -0.00  -0.00     0.03   0.00  -0.00
  39   6     0.01   0.08  -0.02    -0.05  -0.19  -0.03     0.03   0.17   0.06
  40   6    -0.06  -0.04  -0.02     0.12   0.10  -0.03    -0.07   0.01   0.02
  41   6    -0.08  -0.04  -0.02    -0.04   0.00   0.00     0.18   0.01  -0.03
  42   6     0.08  -0.04  -0.02    -0.04  -0.00   0.00     0.18  -0.00   0.03
  43   6     0.19  -0.11  -0.01     0.02  -0.03   0.01    -0.00   0.02   0.07
  44   6    -0.12   0.07   0.13    -0.08   0.03   0.06    -0.15   0.09   0.16
  45   6    -0.07   0.05   0.07     0.02  -0.04  -0.09    -0.01  -0.03   0.03
  46   6    -0.00  -0.00  -0.04     0.07  -0.07  -0.19     0.11  -0.06  -0.12
  47   6     0.00  -0.00  -0.04     0.07   0.07   0.19     0.11   0.06   0.12
  48   6    -0.00   0.00  -0.04     0.02   0.03   0.09     0.08   0.02   0.17
  49   6    -0.11   0.07  -0.07     0.12  -0.09   0.04    -0.09   0.04  -0.06
  50   6    -0.12   0.06  -0.07     0.02  -0.03   0.01    -0.00  -0.01  -0.03
  51   6     0.07   0.03   0.07    -0.08  -0.02  -0.06    -0.08  -0.03  -0.06
  52   6     0.12   0.07   0.13    -0.08  -0.03  -0.06    -0.15  -0.09  -0.16
  53   6     0.07   0.05   0.07     0.03   0.04   0.09    -0.00   0.03  -0.03
  54   6    -0.01  -0.14  -0.07    -0.04  -0.11  -0.03    -0.02   0.11   0.05
  55   6     0.01  -0.13  -0.07    -0.04   0.11   0.03    -0.01  -0.11  -0.05
  56   6    -0.01   0.08  -0.02    -0.05   0.19   0.03     0.03  -0.17  -0.06
  57   6     0.07  -0.04  -0.02     0.12  -0.10   0.03    -0.06  -0.02  -0.02
  58   6    -0.19  -0.11  -0.01     0.02   0.03  -0.01     0.00  -0.02  -0.07
  59   6    -0.12   0.06  -0.07     0.02  -0.03   0.01    -0.00  -0.01  -0.03
  60   6     0.00  -0.00  -0.04    -0.04  -0.07   0.10     0.02  -0.03  -0.08
                     31                     32                     33
                        a                      a                      a 
 Frequencies --   528.2432               528.2524               528.2884
 Red. masses --    12.0110                12.0110                12.0110
 Frc consts  --     0.0000                 0.0000                 0.0000
 IR Inten    --     0.0013                 0.0035                 0.0025
 Raman Activ --     0.0000                 0.0000                 0.0000
 Depolar     --     0.0000                 0.0000                 0.0000
 Atom AN      X      Y      Z        X      Y      Z        X      Y      Z
   1   6     0.01   0.11  -0.14    -0.00  -0.04   0.12    -0.04  -0.07   0.13
   2   6    -0.01   0.11  -0.14     0.00  -0.04   0.12    -0.04   0.07  -0.13
   3   6     0.08   0.04   0.04     0.04  -0.04   0.05    -0.02   0.03  -0.06
   4   6     0.01   0.02   0.10    -0.02  -0.08  -0.17    -0.02   0.03  -0.04
   5   6    -0.01   0.01   0.10     0.02  -0.08  -0.17    -0.02  -0.03   0.04
   6   6    -0.08   0.04   0.03    -0.04  -0.04   0.04    -0.02  -0.03   0.06
   7   6     0.03  -0.03   0.04     0.07   0.05  -0.06    -0.00  -0.13   0.15
   8   6     0.00  -0.21   0.16     0.00  -0.00  -0.10     0.03  -0.00   0.00
   9   6    -0.03  -0.03   0.04    -0.07   0.06  -0.06    -0.00   0.13  -0.15
  10   6    -0.10   0.06  -0.03    -0.11   0.13  -0.06     0.11  -0.03  -0.01
  11   6     0.07   0.00  -0.00     0.07   0.03   0.10     0.08  -0.05   0.06
  12   6    -0.08  -0.05  -0.04    -0.05   0.04  -0.04     0.00   0.04   0.00
  13   6     0.00   0.00  -0.03     0.01   0.21   0.06     0.04   0.11   0.02
  14   6    -0.00  -0.00  -0.04    -0.01   0.20   0.06     0.04  -0.11  -0.02
  15   6     0.08  -0.05  -0.04     0.05   0.04  -0.04     0.00  -0.04  -0.00
  16   6     0.10  -0.04  -0.08     0.02   0.03   0.05    -0.04   0.06  -0.03
  17   6    -0.07   0.00   0.00    -0.07   0.03   0.10     0.08   0.05  -0.06
  18   6    -0.10  -0.06   0.07     0.01   0.06  -0.00     0.20   0.06  -0.08
  19   6     0.10   0.06  -0.03     0.11   0.13  -0.06     0.11   0.03   0.01
  20   6     0.00  -0.09   0.08    -0.00  -0.26  -0.02    -0.04   0.00   0.00
  21   6     0.07   0.05   0.00    -0.01  -0.08  -0.01     0.00   0.16  -0.00
  22   6     0.15   0.15  -0.05     0.02  -0.02   0.01    -0.07  -0.00   0.03
  23   6    -0.05  -0.01  -0.04    -0.09  -0.10   0.01    -0.20  -0.09  -0.00
  24   6    -0.13  -0.09   0.05    -0.07  -0.06   0.00    -0.04  -0.01  -0.01
  25   6     0.14  -0.10   0.05     0.07  -0.06   0.00    -0.04   0.01   0.01
  26   6     0.05  -0.01  -0.04     0.09  -0.10   0.01    -0.20   0.09   0.00
  27   6    -0.15   0.15  -0.05    -0.02  -0.02   0.01    -0.07   0.00  -0.03
  28   6    -0.07   0.04  -0.00     0.01  -0.08  -0.01     0.00  -0.16   0.00
  29   6    -0.10  -0.04  -0.08    -0.02   0.03   0.05    -0.04  -0.06   0.03
  30   6     0.03  -0.03   0.04     0.07   0.05  -0.06    -0.00  -0.13   0.15
  31   6     0.10   0.06  -0.03     0.11   0.13  -0.06     0.11   0.03   0.01
  32   6    -0.10  -0.06   0.07     0.01   0.06  -0.00     0.20   0.06  -0.08
  33   6    -0.07   0.00   0.00    -0.07   0.03   0.10     0.09   0.05  -0.06
  34   6    -0.08   0.04   0.03    -0.04  -0.04   0.04    -0.02  -0.03   0.06
  35   6    -0.01   0.11  -0.14     0.00  -0.04   0.12    -0.04   0.07  -0.13
  36   6    -0.03  -0.03   0.04    -0.07   0.06  -0.06    -0.00   0.13  -0.15
  37   6     0.00  -0.21   0.16     0.00  -0.00  -0.10     0.03  -0.00   0.00
  38   6     0.00  -0.09   0.08    -0.00  -0.26  -0.02    -0.04   0.00   0.00
  39   6     0.07   0.05   0.00    -0.01  -0.08  -0.01     0.00   0.16  -0.00
  40   6     0.15   0.15  -0.05     0.02  -0.02   0.01    -0.07  -0.00   0.03
  41   6    -0.13  -0.09   0.05    -0.07  -0.06   0.00    -0.04  -0.01  -0.01
  42   6     0.14  -0.09   0.05     0.07  -0.06   0.00    -0.04   0.01   0.01
  43   6     0.05  -0.01  -0.04     0.09  -0.10   0.01    -0.20   0.09   0.00
  44   6     0.10  -0.04  -0.08     0.02   0.03   0.05    -0.04   0.06  -0.03
  45   6     0.08  -0.05  -0.04     0.05   0.04  -0.04     0.00  -0.04  -0.00
  46   6    -0.01   0.01   0.10     0.02  -0.08  -0.17    -0.02  -0.03   0.04
  47   6     0.01   0.02   0.10    -0.02  -0.08  -0.17    -0.02   0.03  -0.04
  48   6     0.08   0.04   0.04     0.04  -0.04   0.05    -0.02   0.03  -0.07
  49   6    -0.10   0.06  -0.03    -0.11   0.13  -0.06     0.11  -0.03  -0.01
  50   6     0.10  -0.06   0.07    -0.01   0.06  -0.00     0.20  -0.06   0.08
  51   6     0.07   0.00  -0.00     0.07   0.03   0.10     0.08  -0.05   0.06
  52   6    -0.10  -0.04  -0.08    -0.02   0.03   0.05    -0.04  -0.06   0.03
  53   6    -0.08  -0.05  -0.04    -0.05   0.04  -0.04     0.00   0.04   0.00
  54   6     0.00   0.00  -0.03     0.01   0.21   0.06     0.04   0.11   0.02
  55   6    -0.00  -0.00  -0.04    -0.01   0.20   0.06     0.04  -0.11  -0.02
  56   6    -0.07   0.04  -0.00     0.01  -0.08  -0.01    -0.00  -0.16   0.00
  57   6    -0.15   0.15  -0.05    -0.02  -0.02   0.01    -0.07   0.00  -0.03
  58   6    -0.05  -0.01  -0.04    -0.09  -0.10   0.01    -0.20  -0.09  -0.00
  59   6     0.10  -0.06   0.07    -0.01   0.06  -0.00     0.20  -0.06   0.08
  60   6     0.01   0.11  -0.14    -0.00  -0.04   0.12    -0.04  -0.07   0.13
                     34                     35                     36
                        a                      a                      a 
 Frequencies --   528.4645               536.4927               536.5417
 Red. masses --    12.0110                12.0110                12.0110
 Frc consts  --     0.0000                 0.0000                 0.0000
 IR Inten    --     0.0007                 0.0002                 0.0000
 Raman Activ --     0.0000                 0.0000                 0.0000
 Depolar     --     0.0000                 0.0000                 0.0000
 Atom AN      X      Y      Z        X      Y      Z        X      Y      Z
   1   6    -0.05   0.04  -0.03     0.18   0.10   0.08     0.02   0.01   0.01
   2   6    -0.05  -0.04   0.03     0.18  -0.10  -0.08    -0.02   0.01   0.01
   3   6    -0.06  -0.05  -0.15     0.10  -0.06  -0.04    -0.15   0.08   0.06
   4   6     0.05   0.02   0.07    -0.00  -0.08   0.03    -0.00   0.19  -0.07
   5   6     0.05  -0.02  -0.07    -0.00   0.08  -0.02    -0.00   0.19  -0.07
   6   6    -0.06   0.05   0.15     0.10   0.05   0.04     0.15   0.08   0.06
   7   6     0.05   0.09  -0.12    -0.07   0.17   0.13     0.00  -0.00  -0.01
   8   6     0.04  -0.00  -0.00    -0.22   0.00  -0.00    -0.00  -0.01   0.01
   9   6     0.05  -0.09   0.12    -0.07  -0.17  -0.13    -0.00  -0.01  -0.01
  10   6     0.03  -0.04   0.07    -0.04  -0.09  -0.07    -0.03  -0.09  -0.06
  11   6    -0.10  -0.05  -0.16     0.04   0.05  -0.04    -0.09  -0.12   0.11
  12   6     0.10   0.13   0.20    -0.08  -0.01   0.07     0.15   0.02  -0.10
  13   6     0.05   0.02   0.07    -0.08  -0.02   0.06     0.02  -0.00  -0.01
  14   6     0.05  -0.02  -0.07    -0.08   0.02  -0.06    -0.02  -0.00  -0.01
  15   6     0.10  -0.13  -0.20    -0.08   0.01  -0.07    -0.15   0.02  -0.10
  16   6    -0.01  -0.01  -0.03    -0.06  -0.09   0.01    -0.09  -0.17  -0.00
  17   6    -0.10   0.05   0.16     0.04  -0.05   0.04     0.09  -0.12   0.12
  18   6     0.09   0.06   0.03    -0.05   0.05  -0.05     0.07  -0.08   0.08
  19   6     0.03   0.04  -0.07    -0.04   0.09   0.07     0.03  -0.09  -0.06
  20   6    -0.02  -0.00   0.00    -0.12  -0.00  -0.00    -0.00   0.01   0.00
  21   6    -0.05  -0.08   0.03    -0.03   0.01  -0.08    -0.00  -0.01  -0.01
  22   6    -0.11  -0.10  -0.02     0.03  -0.01   0.08    -0.03   0.02  -0.10
  23   6    -0.09  -0.04   0.01     0.05  -0.10   0.00    -0.07   0.11   0.00
  24   6     0.09   0.02   0.03     0.01  -0.04  -0.10     0.00   0.03   0.09
  25   6     0.09  -0.02  -0.03    -0.01  -0.04  -0.10    -0.00  -0.03  -0.09
  26   6    -0.09   0.04  -0.01    -0.05  -0.10   0.00    -0.07  -0.11  -0.00
  27   6    -0.11   0.10   0.02    -0.03  -0.01   0.08    -0.03  -0.02   0.11
  28   6    -0.05   0.08  -0.03     0.03   0.01  -0.08    -0.00   0.01   0.01
  29   6    -0.01   0.01   0.03    -0.06   0.09  -0.01     0.09  -0.17  -0.00
  30   6     0.05   0.09  -0.12     0.07  -0.17  -0.13    -0.00   0.00   0.01
  31   6     0.03   0.04  -0.07     0.04  -0.09  -0.07    -0.03   0.09   0.06
  32   6     0.09   0.06   0.03     0.05  -0.05   0.05    -0.07   0.08  -0.08
  33   6    -0.10   0.05   0.16    -0.04   0.05  -0.04    -0.09   0.12  -0.12
  34   6    -0.06   0.05   0.15    -0.10  -0.06  -0.04    -0.15  -0.08  -0.06
  35   6    -0.05  -0.04   0.03    -0.18   0.10   0.08     0.02  -0.01  -0.01
  36   6     0.05  -0.09   0.12     0.07   0.17   0.13     0.00   0.01   0.01
  37   6     0.04  -0.00  -0.00     0.22  -0.00   0.00     0.00   0.01  -0.01
  38   6    -0.02  -0.00   0.00     0.12   0.00   0.00     0.00  -0.01  -0.00
  39   6    -0.05  -0.08   0.03     0.02  -0.01   0.07     0.00   0.01   0.01
  40   6    -0.11  -0.10  -0.02    -0.03   0.01  -0.08     0.03  -0.02   0.10
  41   6     0.09   0.02   0.03    -0.01   0.04   0.10    -0.00  -0.03  -0.09
  42   6     0.09  -0.02  -0.03     0.01   0.04   0.10     0.00   0.03   0.09
  43   6    -0.09   0.04  -0.01     0.05   0.10  -0.00     0.07   0.11   0.00
  44   6    -0.01  -0.01  -0.03     0.06   0.09  -0.01     0.09   0.17   0.00
  45   6     0.10  -0.13  -0.20     0.08  -0.01   0.07     0.15  -0.02   0.10
  46   6     0.05  -0.02  -0.07     0.00  -0.08   0.02     0.00  -0.19   0.07
  47   6     0.05   0.02   0.07     0.00   0.08  -0.03     0.00  -0.19   0.07
  48   6    -0.06  -0.05  -0.15    -0.10   0.06   0.04     0.15  -0.08  -0.06
  49   6     0.03  -0.04   0.07     0.04   0.09   0.07     0.03   0.09   0.06
  50   6     0.09  -0.06  -0.03     0.05   0.05  -0.05     0.07   0.08  -0.08
  51   6    -0.10  -0.05  -0.16    -0.04  -0.05   0.04     0.09   0.12  -0.11
  52   6    -0.01   0.01   0.03     0.06  -0.09   0.01    -0.09   0.17   0.00
  53   6     0.10   0.13   0.20     0.08   0.01  -0.07    -0.15  -0.02   0.10
  54   6     0.05   0.02   0.07     0.08   0.02  -0.06    -0.02   0.00   0.01
  55   6     0.05  -0.02  -0.07     0.08  -0.02   0.06     0.02   0.00   0.01
  56   6    -0.05   0.08  -0.03    -0.03  -0.01   0.08     0.00  -0.01  -0.01
  57   6    -0.11   0.10   0.02     0.03   0.01  -0.08     0.03   0.02  -0.11
  58   6    -0.09  -0.04   0.01    -0.05   0.10  -0.00     0.07  -0.11  -0.00
  59   6     0.09  -0.06  -0.03    -0.05  -0.05   0.05    -0.07  -0.08   0.08
  60   6    -0.05   0.04  -0.03    -0.18  -0.10  -0.08    -0.02  -0.01  -0.01
                     37                     38                     39
                        a                      a                      a 
 Frequencies --   536.5441               539.2009               545.5519
 Red. masses --    12.0110                12.0110                12.0110
 Frc consts  --     0.0000                 0.0000                 0.0000
 IR Inten    --     0.0001                 0.0001                 0.0001
 Raman Activ --     0.0000                 0.0000                 0.0000
 Depolar     --     0.0000                 0.0000                 0.0000
 Atom AN      X      Y      Z        X      Y      Z        X      Y      Z
   1   6     0.01   0.01  -0.00    -0.03  -0.04   0.12    -0.01  -0.08   0.16
   2   6     0.01  -0.01   0.00     0.03  -0.04   0.12     0.01  -0.08   0.16
   3   6     0.04  -0.03  -0.03     0.05  -0.00   0.12    -0.10  -0.01  -0.15
   4   6     0.00  -0.05   0.03     0.02   0.05   0.12    -0.00   0.04  -0.02
   5   6     0.00   0.05  -0.03    -0.02   0.05   0.12    -0.00   0.04  -0.01
   6   6     0.04   0.03   0.03    -0.05  -0.00   0.12     0.10  -0.01  -0.14
   7   6     0.00  -0.01  -0.00    -0.04  -0.08   0.09     0.01   0.06  -0.04
   8   6    -0.03  -0.00  -0.00     0.00  -0.11   0.07     0.00   0.16  -0.15
   9   6     0.00   0.01   0.00     0.04  -0.08   0.09    -0.00   0.06  -0.03
  10   6     0.05   0.11   0.09     0.08  -0.08   0.06     0.06  -0.00   0.05
  11   6     0.04   0.05  -0.04     0.09   0.00   0.09    -0.07  -0.02  -0.08
  12   6    -0.07  -0.01   0.04     0.05   0.08   0.09     0.10   0.09   0.12
  13   6    -0.16  -0.02   0.12     0.03   0.11   0.06    -0.01  -0.16  -0.07
  14   6    -0.16   0.02  -0.12    -0.03   0.11   0.06     0.01  -0.16  -0.07
  15   6    -0.07   0.01  -0.04    -0.05   0.08   0.09    -0.10   0.09   0.12
  16   6    -0.02  -0.04   0.00    -0.09   0.05   0.07    -0.07   0.04   0.07
  17   6     0.04  -0.05   0.04    -0.09   0.00   0.09     0.07  -0.02  -0.08
  18   6     0.07  -0.11   0.09    -0.11  -0.03   0.06    -0.11  -0.02   0.02
  19   6     0.05  -0.11  -0.09    -0.08  -0.08   0.06    -0.07  -0.01   0.05
  20   6    -0.19  -0.00   0.00     0.00  -0.13   0.02     0.00  -0.22  -0.00
  21   6    -0.06   0.04  -0.19    -0.04  -0.12  -0.01    -0.00  -0.07   0.01
  22   6    -0.06   0.03  -0.16    -0.08  -0.10   0.01     0.06   0.04   0.03
  23   6    -0.07   0.12   0.00    -0.11  -0.06  -0.02     0.11   0.03   0.00
  24   6     0.00   0.06   0.16    -0.13  -0.02   0.01     0.00  -0.01  -0.02
  25   6    -0.00   0.06   0.16    -0.13   0.02  -0.01    -0.00   0.01   0.02
  26   6     0.07   0.12   0.00    -0.11   0.06   0.02     0.11  -0.03  -0.00
  27   6     0.06   0.03  -0.16    -0.08   0.10  -0.01     0.06  -0.04  -0.03
  28   6     0.06   0.04  -0.19    -0.04   0.12   0.01    -0.01   0.07  -0.01
  29   6    -0.02   0.04  -0.00     0.09   0.05   0.07     0.07   0.04   0.07
  30   6    -0.00   0.01   0.00     0.04   0.08  -0.09    -0.01  -0.06   0.04
  31   6    -0.05   0.11   0.09     0.08   0.08  -0.06     0.07   0.01  -0.05
  32   6    -0.07   0.11  -0.09     0.11   0.03  -0.06     0.11   0.02  -0.02
  33   6    -0.04   0.05  -0.04     0.09  -0.00  -0.09    -0.07   0.02   0.08
  34   6    -0.04  -0.03  -0.03     0.05   0.00  -0.12    -0.10   0.01   0.14
  35   6    -0.01   0.01  -0.00    -0.03   0.04  -0.12    -0.01   0.08  -0.16
  36   6    -0.00  -0.01  -0.00    -0.04   0.08  -0.09     0.00  -0.06   0.03
  37   6     0.03   0.00  -0.00    -0.00   0.11  -0.07    -0.00  -0.16   0.15
  38   6     0.19   0.00  -0.00    -0.00   0.13  -0.02    -0.00   0.22   0.00
  39   6     0.06  -0.04   0.19     0.04   0.12   0.01     0.00   0.07  -0.01
  40   6     0.06  -0.03   0.16     0.08   0.10  -0.01    -0.06  -0.04  -0.03
  41   6    -0.00  -0.06  -0.16     0.13   0.02  -0.01    -0.00   0.01   0.02
  42   6     0.00  -0.06  -0.16     0.13  -0.02   0.01     0.00  -0.01  -0.02
  43   6    -0.07  -0.12  -0.00     0.11  -0.06  -0.02    -0.11   0.03   0.00
  44   6     0.02   0.04  -0.00     0.09  -0.05  -0.07     0.07  -0.04  -0.07
  45   6     0.07  -0.01   0.04     0.05  -0.08  -0.09     0.10  -0.09  -0.12
  46   6    -0.00  -0.05   0.03     0.02  -0.05  -0.12     0.00  -0.04   0.01
  47   6    -0.00   0.05  -0.03    -0.02  -0.05  -0.12     0.00  -0.04   0.02
  48   6    -0.04   0.03   0.03    -0.05   0.00  -0.12     0.10   0.01   0.15
  49   6    -0.05  -0.11  -0.09    -0.08   0.08  -0.06    -0.06   0.00  -0.05
  50   6    -0.07  -0.11   0.09    -0.11   0.03  -0.06    -0.11   0.02  -0.02
  51   6    -0.04  -0.05   0.04    -0.09  -0.00  -0.09     0.07   0.02   0.08
  52   6     0.02  -0.04   0.00    -0.09  -0.05  -0.07    -0.07  -0.04  -0.07
  53   6     0.07   0.01  -0.04    -0.05  -0.08  -0.09    -0.10  -0.09  -0.12
  54   6     0.16   0.02  -0.12    -0.03  -0.11  -0.06     0.01   0.16   0.07
  55   6     0.16  -0.02   0.12     0.03  -0.11  -0.06    -0.01   0.16   0.07
  56   6    -0.06  -0.04   0.19     0.04  -0.12  -0.01     0.01  -0.07   0.01
  57   6    -0.06  -0.03   0.16     0.08  -0.10   0.01    -0.06   0.04   0.03
  58   6     0.07  -0.12  -0.00     0.11   0.06   0.02    -0.11  -0.03  -0.00
  59   6     0.07   0.11  -0.09     0.11  -0.03   0.06     0.11  -0.02   0.02
  60   6    -0.01  -0.01   0.00     0.03   0.04  -0.12     0.01   0.08  -0.16
                     40                     41                     42
                        a                      a                      a 
 Frequencies --   545.5857               545.6119               552.8951
 Red. masses --    12.0110                12.0110                12.0110
 Frc consts  --     0.0000                 0.0000                 0.0000
 IR Inten    --     0.0002                 0.0002                 0.0001
 Raman Activ --     0.0000                 0.0000                 0.0000
 Depolar     --     0.0000                 0.0000                 0.0000
 Atom AN      X      Y      Z        X      Y      Z        X      Y      Z
   1   6    -0.04  -0.06   0.05     0.01   0.05  -0.09    -0.06   0.08   0.03
   2   6    -0.04   0.05  -0.05     0.01  -0.05   0.09    -0.06  -0.08  -0.03
   3   6     0.01   0.02   0.07    -0.03  -0.03  -0.10    -0.10  -0.11  -0.03
   4   6     0.08   0.07   0.19     0.00  -0.01   0.02    -0.09  -0.11   0.04
   5   6     0.08  -0.07  -0.19     0.00   0.01  -0.02    -0.09   0.11  -0.04
   6   6     0.02  -0.02  -0.08    -0.03   0.03   0.10    -0.10   0.11   0.03
   7   6    -0.01  -0.10   0.07     0.04   0.09  -0.14     0.08   0.02   0.08
   8   6     0.02   0.00  -0.00     0.04  -0.00   0.00     0.07   0.00   0.00
   9   6    -0.01   0.10  -0.07     0.04  -0.09   0.14     0.08  -0.02  -0.08
  10   6     0.09  -0.07   0.04    -0.12   0.11  -0.05     0.11   0.00  -0.07
  11   6    -0.12  -0.04  -0.12    -0.03   0.01  -0.08    -0.04  -0.08   0.02
  12   6     0.01   0.03   0.06     0.03   0.05   0.10     0.04  -0.11   0.15
  13   6    -0.04  -0.06   0.00    -0.01  -0.10  -0.04     0.14  -0.09   0.06
  14   6    -0.04   0.06  -0.01    -0.01   0.11   0.04     0.14   0.09  -0.06
  15   6     0.01  -0.03  -0.06     0.03  -0.05  -0.10     0.04   0.11  -0.15
  16   6    -0.12   0.06   0.12     0.02  -0.06  -0.04     0.04   0.07  -0.10
  17   6    -0.12   0.04   0.12    -0.03  -0.01   0.08    -0.04   0.08  -0.02
  18   6     0.13   0.08  -0.07     0.08   0.01  -0.01     0.05  -0.06   0.08
  19   6     0.09   0.07  -0.04    -0.12  -0.11   0.05     0.11  -0.00   0.07
  20   6    -0.02  -0.00  -0.00     0.04   0.00   0.00    -0.03   0.00   0.00
  21   6     0.01   0.10  -0.02     0.04   0.18   0.05    -0.04   0.06  -0.03
  22   6    -0.07  -0.06   0.01    -0.13  -0.12   0.04     0.03   0.02   0.03
  23   6    -0.14  -0.11   0.00     0.06   0.01  -0.00     0.03  -0.07  -0.06
  24   6    -0.01  -0.02  -0.04     0.20   0.07  -0.03    -0.01  -0.19   0.06
  25   6     0.01  -0.02  -0.04    -0.20   0.07  -0.03     0.01  -0.19   0.06
  26   6     0.15  -0.11   0.00    -0.06   0.01  -0.00    -0.02  -0.07  -0.06
  27   6     0.07  -0.06   0.01     0.13  -0.12   0.04    -0.03   0.02   0.03
  28   6    -0.01   0.10  -0.02    -0.04   0.17   0.05     0.04   0.06  -0.04
  29   6    -0.12  -0.06  -0.12     0.01   0.06   0.04     0.04  -0.07   0.10
  30   6     0.01   0.10  -0.07    -0.04  -0.09   0.14    -0.08  -0.02  -0.08
  31   6    -0.09  -0.07   0.04     0.12   0.11  -0.05    -0.11   0.00  -0.07
  32   6    -0.13  -0.08   0.07    -0.08  -0.01   0.01    -0.05   0.06  -0.08
  33   6     0.12  -0.04  -0.12     0.03   0.01  -0.08     0.04  -0.08   0.02
  34   6    -0.02   0.02   0.08     0.03  -0.03  -0.10     0.10  -0.11  -0.03
  35   6     0.04  -0.05   0.05    -0.01   0.05  -0.09     0.06   0.08   0.03
  36   6     0.01  -0.10   0.07    -0.04   0.09  -0.14    -0.08   0.02   0.08
  37   6    -0.02  -0.00   0.00    -0.04   0.00  -0.00    -0.07  -0.00  -0.00
  38   6     0.02   0.00   0.00    -0.04  -0.00  -0.00     0.03  -0.00  -0.00
  39   6    -0.01  -0.10   0.02    -0.04  -0.18  -0.05     0.04  -0.06   0.03
  40   6     0.07   0.06  -0.01     0.13   0.12  -0.04    -0.03  -0.02  -0.03
  41   6     0.01   0.02   0.04    -0.20  -0.07   0.03     0.01   0.19  -0.06
  42   6    -0.01   0.02   0.04     0.20  -0.07   0.03    -0.01   0.19  -0.06
  43   6    -0.15   0.11  -0.00     0.06  -0.01   0.00     0.02   0.07   0.06
  44   6     0.12  -0.06  -0.12    -0.02   0.06   0.04    -0.04  -0.07   0.10
  45   6    -0.01   0.03   0.06    -0.03   0.05   0.10    -0.04  -0.11   0.15
  46   6    -0.08   0.07   0.19    -0.00  -0.01   0.02     0.09  -0.11   0.04
  47   6    -0.08  -0.07  -0.19    -0.00   0.01  -0.02     0.09   0.11  -0.04
  48   6    -0.01  -0.02  -0.07     0.03   0.03   0.10     0.10   0.11   0.03
  49   6    -0.09   0.07  -0.04     0.12  -0.11   0.05    -0.11  -0.00   0.07
  50   6    -0.14   0.08  -0.07    -0.08   0.01  -0.01    -0.05  -0.06   0.08
  51   6     0.12   0.04   0.12     0.03  -0.01   0.08     0.04   0.08  -0.02
  52   6     0.12   0.06   0.12    -0.01  -0.06  -0.04    -0.04   0.07  -0.10
  53   6    -0.01  -0.03  -0.06    -0.03  -0.05  -0.10    -0.04   0.11  -0.15
  54   6     0.04   0.06  -0.00     0.01   0.10   0.04    -0.14   0.09  -0.06
  55   6     0.04  -0.06   0.01     0.01  -0.11  -0.04    -0.14  -0.09   0.06
  56   6     0.01  -0.10   0.02     0.04  -0.17  -0.05    -0.04  -0.06   0.04
  57   6    -0.07   0.06  -0.01    -0.13   0.12  -0.04     0.03  -0.02  -0.03
  58   6     0.14   0.11  -0.00    -0.06  -0.01   0.00    -0.03   0.07   0.06
  59   6     0.14  -0.08   0.07     0.08  -0.01   0.01     0.05   0.06  -0.08
  60   6     0.04   0.06  -0.05    -0.01  -0.05   0.10     0.06  -0.08  -0.03
                     43                     44                     45
                        a                      a                      a 
[...]
  10   6     0.13   0.03  -0.12     0.04   0.02  -0.05    -0.06  -0.03   0.03
  11   6     0.04  -0.06  -0.04    -0.07   0.14   0.09     0.00   0.02  -0.01
  12   6     0.03  -0.04   0.04     0.05  -0.07   0.04    -0.07   0.18  -0.14
  13   6    -0.07   0.05  -0.08    -0.05   0.05  -0.07     0.09  -0.13   0.17
  14   6     0.06   0.05  -0.07     0.05   0.05  -0.07     0.09   0.13  -0.18
  15   6    -0.03  -0.04   0.04    -0.05  -0.07   0.04    -0.08  -0.18   0.14
  16   6    -0.07   0.03  -0.13    -0.05   0.03  -0.13    -0.04   0.09  -0.15
  17   6    -0.04  -0.06  -0.05     0.07   0.14   0.09     0.01  -0.02   0.01
  18   6     0.01   0.05   0.04    -0.04  -0.15  -0.14    -0.01   0.00  -0.03
  19   6    -0.13   0.03  -0.12    -0.04   0.02  -0.05    -0.05   0.03  -0.03
  20   6     0.00   0.00   0.07     0.00   0.05   0.21     0.02  -0.00  -0.00
  21   6    -0.16   0.05   0.06     0.07  -0.04  -0.02    -0.06   0.03  -0.03
  22   6     0.11  -0.08  -0.05    -0.08   0.08   0.05     0.07  -0.05   0.02
  23   6    -0.02  -0.02   0.13    -0.03  -0.01   0.17     0.01   0.07  -0.17
  24   6     0.00  -0.00   0.01     0.02  -0.03   0.01     0.02  -0.14   0.10
  25   6    -0.00   0.00   0.01    -0.02  -0.02   0.01     0.02   0.14  -0.10
  26   6     0.02  -0.02   0.13     0.03  -0.01   0.17     0.01  -0.07   0.17
  27   6    -0.11  -0.08  -0.05     0.08   0.08   0.05     0.07   0.05  -0.03
  28   6     0.16   0.06   0.06    -0.07  -0.04  -0.02    -0.07  -0.03   0.03
  29   6     0.07   0.03  -0.13     0.05   0.03  -0.13    -0.04  -0.09   0.15
  30   6     0.18  -0.00   0.09     0.01  -0.01   0.01     0.06  -0.01   0.02
  31   6    -0.13   0.03  -0.12    -0.04   0.02  -0.05    -0.05   0.03  -0.03
  32   6     0.01   0.05   0.04    -0.04  -0.15  -0.14    -0.01   0.00  -0.03
  33   6    -0.04  -0.06  -0.05     0.07   0.14   0.09     0.01  -0.02   0.01
  34   6    -0.01   0.02   0.01     0.06  -0.09   0.01     0.03  -0.06   0.01
  35   6    -0.05  -0.05  -0.02     0.07   0.11   0.03    -0.04  -0.06  -0.01
  36   6    -0.17  -0.00   0.09    -0.01  -0.01   0.01     0.07   0.01  -0.02
  37   6     0.00   0.00  -0.02     0.00  -0.11  -0.19    -0.03   0.00   0.00
  38   6     0.00   0.00   0.07     0.00   0.05   0.21     0.02  -0.00  -0.00
  39   6    -0.16   0.05   0.06     0.07  -0.04  -0.02    -0.06   0.03  -0.03
  40   6     0.11  -0.08  -0.05    -0.08   0.08   0.05     0.07  -0.05   0.02
  41   6     0.00  -0.00   0.01     0.02  -0.03   0.01     0.02  -0.14   0.10
  42   6    -0.00   0.00   0.01    -0.02  -0.02   0.01     0.02   0.14  -0.10
  43   6     0.02  -0.02   0.13     0.03  -0.01   0.17     0.01  -0.07   0.17
  44   6    -0.07   0.03  -0.13    -0.05   0.03  -0.13    -0.04   0.09  -0.15
  45   6    -0.03  -0.04   0.04    -0.05  -0.07   0.04    -0.08  -0.18   0.14
  46   6     0.22   0.01   0.03    -0.04  -0.01  -0.00    -0.00   0.07  -0.03
  47   6    -0.22   0.01   0.03     0.04  -0.01  -0.00    -0.01  -0.07   0.03
  48   6     0.01   0.03   0.01    -0.06  -0.09   0.01     0.04   0.06  -0.01
  49   6     0.13   0.03  -0.12     0.04   0.02  -0.05    -0.06  -0.03   0.03
  50   6    -0.01   0.05   0.03     0.04  -0.15  -0.14    -0.01  -0.00   0.02
  51   6     0.04  -0.06  -0.04    -0.07   0.14   0.09     0.00   0.02  -0.01
  52   6     0.07   0.03  -0.13     0.05   0.03  -0.13    -0.04  -0.09   0.15
  53   6     0.03  -0.04   0.04     0.05  -0.07   0.04    -0.07   0.18  -0.14
  54   6    -0.07   0.05  -0.08    -0.05   0.05  -0.07     0.09  -0.13   0.17
  55   6     0.06   0.05  -0.07     0.05   0.05  -0.07     0.09   0.13  -0.18
  56   6     0.16   0.06   0.06    -0.07  -0.04  -0.02    -0.07  -0.03   0.03
  57   6    -0.11  -0.08  -0.05     0.08   0.08   0.05     0.07   0.05  -0.03
  58   6    -0.02  -0.02   0.13    -0.03  -0.01   0.17     0.01   0.07  -0.17
  59   6    -0.01   0.05   0.03     0.04  -0.15  -0.14    -0.01  -0.00   0.02
  60   6     0.04  -0.05  -0.01    -0.07   0.11   0.03    -0.03   0.05   0.01
                    166                    167                    168
                        a                      a                      a 
 Frequencies --  1548.0639              1548.0726              1548.0786
 Red. masses --    12.0110                12.0110                12.0110
 Frc consts  --     0.0000                 0.0000                 0.0000
 IR Inten    --     0.0011                 0.0018                 0.0032
 Raman Activ --     0.0000                 0.0000                 0.0000
 Depolar     --     0.0000                 0.0000                 0.0000
 Atom AN      X      Y      Z        X      Y      Z        X      Y      Z
   1   6    -0.10   0.10   0.01    -0.02  -0.08  -0.03    -0.08   0.04  -0.01
   2   6     0.11   0.07  -0.00     0.01   0.11   0.03     0.07   0.02  -0.01
   3   6    -0.09  -0.07   0.03    -0.00  -0.09  -0.01    -0.07  -0.02   0.03
   4   6     0.23  -0.01  -0.03     0.03   0.01  -0.01     0.13  -0.01  -0.02
   5   6    -0.23  -0.01  -0.03    -0.04  -0.01  -0.00    -0.13   0.00  -0.02
   6   6     0.08  -0.09   0.02     0.02   0.07   0.02     0.08  -0.04   0.03
   7   6     0.05  -0.05  -0.02     0.14   0.01   0.08     0.15   0.02   0.11
   8   6     0.01   0.07   0.12    -0.07   0.01   0.01    -0.00  -0.11  -0.20
   9   6    -0.09  -0.05   0.00     0.11  -0.02  -0.08    -0.14   0.03   0.11
  10   6     0.07   0.06  -0.01    -0.08  -0.00   0.09     0.12   0.01  -0.15
  11   6    -0.01   0.03   0.01    -0.10   0.16   0.12     0.07  -0.07  -0.09
  12   6    -0.11   0.08  -0.02    -0.05   0.02   0.00    -0.03   0.04  -0.03
  13   6     0.12  -0.06   0.04     0.05  -0.01  -0.01     0.05  -0.04   0.05
  14   6    -0.12  -0.05   0.03     0.01  -0.01   0.02    -0.05  -0.04   0.04
  15   6     0.11   0.08  -0.01    -0.01  -0.00  -0.01     0.03   0.04  -0.02
  16   6    -0.06  -0.02  -0.08     0.07   0.01   0.10     0.06  -0.01   0.10
  17   6     0.03   0.07   0.04    -0.09  -0.15  -0.11    -0.07  -0.06  -0.08
  18   6    -0.02  -0.08  -0.06     0.05   0.14   0.14     0.05   0.05   0.10
  19   6    -0.04   0.05   0.02    -0.10   0.02  -0.10    -0.13   0.01  -0.15
  20   6    -0.01  -0.03  -0.12     0.07  -0.00  -0.01     0.00   0.06   0.24
  21   6    -0.14   0.06   0.05    -0.15   0.06   0.06     0.01  -0.00  -0.09
  22   6     0.12  -0.10  -0.06     0.12  -0.09  -0.06    -0.02   0.02   0.09
  23   6    -0.03   0.03   0.04    -0.05   0.03   0.13     0.03  -0.00  -0.12
  24   6     0.00   0.00   0.01     0.01  -0.11  -0.04    -0.00   0.02  -0.00
  25   6    -0.00  -0.01  -0.00     0.01   0.11   0.04     0.00   0.01  -0.00
  26   6     0.04   0.03   0.08    -0.05  -0.02  -0.12    -0.03  -0.00  -0.12
  27   6    -0.15  -0.12  -0.08     0.08   0.06   0.04     0.02   0.02   0.09
  28   6     0.18   0.07   0.07    -0.10  -0.04  -0.04    -0.02  -0.01  -0.09
  29   6     0.04  -0.02  -0.04     0.08  -0.02  -0.12    -0.06  -0.01   0.10
  30   6     0.05  -0.05  -0.02     0.14   0.01   0.08     0.15   0.02   0.11
  31   6    -0.04   0.05   0.02    -0.10   0.02  -0.10    -0.13   0.01  -0.15
  32   6    -0.02  -0.08  -0.06     0.05   0.14   0.14     0.05   0.05   0.10
  33   6     0.03   0.07   0.04    -0.09  -0.15  -0.11    -0.07  -0.06  -0.08
  34   6     0.08  -0.09   0.02     0.02   0.07   0.02     0.08  -0.04   0.03
  35   6     0.11   0.07  -0.00     0.01   0.11   0.03     0.07   0.02  -0.01
  36   6    -0.09  -0.05   0.00     0.11  -0.02  -0.08    -0.14   0.03   0.11
  37   6     0.01   0.07   0.12    -0.07   0.01   0.01    -0.00  -0.11  -0.20
  38   6    -0.01  -0.03  -0.12     0.07  -0.00  -0.01     0.00   0.06   0.24
  39   6    -0.14   0.06   0.05    -0.15   0.06   0.06     0.01  -0.00  -0.09
  40   6     0.12  -0.10  -0.06     0.12  -0.09  -0.06    -0.02   0.02   0.09
  41   6     0.00   0.00   0.01     0.01  -0.11  -0.04    -0.00   0.02  -0.00
  42   6    -0.00  -0.01  -0.00     0.01   0.11   0.04     0.00   0.01  -0.00
  43   6     0.04   0.03   0.08    -0.05  -0.02  -0.12    -0.03  -0.00  -0.12
  44   6    -0.06  -0.02  -0.08     0.07   0.01   0.10     0.06  -0.01   0.10
  45   6     0.11   0.08  -0.01    -0.01  -0.00  -0.01     0.03   0.04  -0.02
  46   6    -0.23  -0.01  -0.03    -0.04  -0.01  -0.00    -0.13   0.00  -0.02
  47   6     0.23  -0.01  -0.03     0.03   0.01  -0.01     0.13  -0.01  -0.02
  48   6    -0.09  -0.07   0.03    -0.00  -0.09  -0.01    -0.07  -0.02   0.03
  49   6     0.07   0.06  -0.01    -0.08  -0.00   0.09     0.12   0.01  -0.15
  50   6     0.00  -0.04  -0.02     0.05  -0.16  -0.15    -0.05   0.06   0.11
  51   6    -0.01   0.03   0.01    -0.10   0.16   0.12     0.07  -0.07  -0.09
  52   6     0.04  -0.02  -0.04     0.08  -0.02  -0.12    -0.06  -0.01   0.10
  53   6    -0.11   0.08  -0.02    -0.05   0.02   0.00    -0.03   0.04  -0.03
  54   6     0.12  -0.06   0.04     0.05  -0.01  -0.01     0.05  -0.04   0.05
  55   6    -0.12  -0.05   0.03     0.01  -0.01   0.02    -0.05  -0.04   0.04
  56   6     0.18   0.07   0.07    -0.10  -0.04  -0.04    -0.02  -0.01  -0.09
  57   6    -0.15  -0.12  -0.08     0.08   0.06   0.04     0.02   0.02   0.09
  58   6    -0.03   0.03   0.04    -0.05   0.03   0.13     0.03  -0.00  -0.12
  59   6     0.00  -0.04  -0.02     0.05  -0.16  -0.15    -0.05   0.06   0.11
  60   6    -0.10   0.10   0.01    -0.02  -0.08  -0.03    -0.08   0.04  -0.01
                    169                    170                    171
                        a                      a                      a 
 Frequencies --  1548.0841              1559.4420              1559.4947
 Red. masses --    12.0110                12.0110                12.0110
 Frc consts  --     0.0000                 0.0000                 0.0000
 IR Inten    --     0.0011                 0.0001                 0.0000
 Raman Activ --     0.0000                 0.0000                 0.0000
 Depolar     --     0.0000                 0.0000                 0.0000
 Atom AN      X      Y      Z        X      Y      Z        X      Y      Z
   1   6    -0.09   0.19   0.03    -0.03  -0.01  -0.01     0.10  -0.10  -0.01
   2   6    -0.09  -0.18  -0.03    -0.02   0.01   0.01    -0.10  -0.10  -0.01
   3   6     0.08   0.21  -0.02     0.02  -0.00  -0.01     0.08   0.08  -0.02
   4   6     0.01  -0.05   0.02     0.02   0.04  -0.03    -0.27   0.02   0.03
   5   6     0.01   0.05  -0.02     0.00  -0.05   0.02     0.27   0.01   0.04
   6   6     0.08  -0.21   0.02     0.03  -0.01   0.02    -0.08   0.09  -0.02
   7   6     0.11  -0.04   0.03     0.08   0.00   0.05     0.01   0.01   0.01
   8   6    -0.05   0.01   0.01    -0.05  -0.00  -0.00    -0.00   0.05   0.09
   9   6     0.11   0.04  -0.03     0.08  -0.00  -0.05    -0.01   0.01   0.01
  10   6    -0.11  -0.06   0.06    -0.06  -0.01   0.05    -0.01  -0.02   0.00
  11   6    -0.00  -0.12   0.00    -0.08   0.10   0.09     0.03  -0.12  -0.03
  12   6    -0.04   0.01   0.01     0.09  -0.18   0.13     0.09  -0.08   0.04
  13   6     0.03  -0.00  -0.01    -0.10   0.13  -0.16    -0.11   0.07  -0.08
  14   6     0.03   0.00   0.01    -0.11  -0.13   0.17     0.10   0.06  -0.07
  15   6    -0.03  -0.01  -0.01     0.09   0.19  -0.14    -0.08  -0.07   0.03
  16   6     0.04  -0.04   0.09     0.03  -0.04   0.10    -0.02   0.07  -0.09
  17   6     0.00   0.13   0.01    -0.07  -0.10  -0.09    -0.04  -0.13  -0.04
  18   6     0.02  -0.12  -0.03     0.04   0.09   0.11     0.00   0.12   0.06
  19   6    -0.10   0.06  -0.05    -0.06   0.01  -0.05     0.01  -0.02  -0.00
  20   6     0.06  -0.00  -0.01     0.05   0.00   0.01     0.00  -0.02  -0.09
  21   6    -0.11   0.04   0.04    -0.12   0.05  -0.00    -0.02   0.01  -0.01
  22   6     0.09  -0.07  -0.04     0.11  -0.09   0.00     0.03  -0.03   0.00
  23   6    -0.01  -0.03   0.09     0.01   0.03  -0.13    -0.00   0.06  -0.10
  24   6    -0.03   0.18  -0.07    -0.01   0.02  -0.01     0.02  -0.16   0.06
  25   6    -0.03  -0.19   0.07     0.01   0.01  -0.00     0.02   0.17  -0.06
  26   6    -0.01   0.03  -0.08    -0.01   0.03  -0.13    -0.01  -0.05   0.09
  27   6     0.08   0.06   0.03    -0.11  -0.09  -0.00     0.03   0.02  -0.00
  28   6    -0.10  -0.04  -0.04     0.12   0.05  -0.00    -0.02  -0.01   0.01
  29   6     0.04   0.04  -0.10     0.02   0.04  -0.09     0.02   0.07  -0.10
  30   6     0.11  -0.04   0.03    -0.08  -0.00  -0.05    -0.01  -0.01  -0.01
  31   6    -0.10   0.06  -0.05     0.06  -0.01   0.05    -0.01   0.02   0.00
  32   6     0.02  -0.12  -0.03    -0.04  -0.09  -0.11    -0.00  -0.12  -0.06
  33   6     0.00   0.13   0.01     0.07   0.10   0.09     0.04   0.13   0.04
  34   6     0.08  -0.21   0.02    -0.03   0.01  -0.02     0.08  -0.09   0.02
  35   6    -0.09  -0.18  -0.03     0.02  -0.01  -0.01     0.10   0.10   0.01
  36   6     0.11   0.04  -0.03    -0.08   0.00   0.05     0.01  -0.01  -0.01
  37   6    -0.05   0.01   0.01     0.05   0.00   0.00     0.00  -0.05  -0.09
  38   6     0.06  -0.00  -0.01    -0.05  -0.00  -0.01    -0.00   0.02   0.09
  39   6    -0.11   0.04   0.04     0.12  -0.05   0.00     0.02  -0.01   0.01
  40   6     0.09  -0.07  -0.04    -0.11   0.09  -0.00    -0.03   0.03  -0.00
  41   6    -0.03   0.18  -0.07     0.01  -0.02   0.01    -0.02   0.16  -0.06
  42   6    -0.03  -0.19   0.07    -0.01  -0.01   0.00    -0.02  -0.17   0.06
  43   6    -0.01   0.03  -0.08     0.01  -0.03   0.13     0.01   0.05  -0.09
  44   6     0.04  -0.04   0.09    -0.03   0.04  -0.10     0.02  -0.07   0.09
  45   6    -0.03  -0.01  -0.01    -0.09  -0.19   0.14     0.08   0.07  -0.03
  46   6     0.01   0.05  -0.02    -0.00   0.05  -0.02    -0.27  -0.01  -0.04
  47   6     0.01  -0.05   0.02    -0.02  -0.04   0.03     0.27  -0.02  -0.03
  48   6     0.08   0.21  -0.02    -0.02   0.00   0.01    -0.08  -0.08   0.02
  49   6    -0.11  -0.06   0.06     0.06   0.01  -0.05     0.01   0.02  -0.00
  50   6     0.02   0.12   0.02    -0.04   0.10   0.11     0.00  -0.11  -0.05
  51   6    -0.00  -0.12   0.00     0.08  -0.10  -0.09    -0.03   0.12   0.03
  52   6     0.04   0.04  -0.10    -0.02  -0.04   0.09    -0.02  -0.07   0.10
  53   6    -0.04   0.01   0.01    -0.09   0.18  -0.13    -0.09   0.08  -0.04
  54   6     0.03  -0.00  -0.01     0.10  -0.13   0.16     0.11  -0.07   0.08
  55   6     0.03   0.00   0.01     0.11   0.13  -0.17    -0.10  -0.06   0.07
  56   6    -0.10  -0.04  -0.04    -0.12  -0.05   0.00     0.02   0.01  -0.01
  57   6     0.08   0.06   0.03     0.11   0.09   0.00    -0.03  -0.02   0.00
  58   6    -0.01  -0.03   0.09    -0.01  -0.03   0.13     0.00  -0.06   0.10
  59   6     0.02   0.12   0.02     0.04  -0.10  -0.11    -0.00   0.11   0.05
  60   6    -0.09   0.19   0.03     0.03   0.01   0.01    -0.10   0.10   0.01
                    172                    173                    174
                        a                      a                      a 
 Frequencies --  1559.5068              1559.5178              1559.5200
 Red. masses --    12.0110                12.0110                12.0110
 Frc consts  --     0.0000                 0.0000                 0.0000
 IR Inten    --     0.0001                 0.0000                 0.0001
 Raman Activ --     0.0000                 0.0000                 0.0000
 Depolar     --     0.0000                 0.0000                 0.0000
 Atom AN      X      Y      Z        X      Y      Z        X      Y      Z
   1   6     0.05  -0.08  -0.02    -0.06   0.18   0.04     0.09  -0.08   0.00
   2   6    -0.01  -0.01  -0.00    -0.12  -0.19  -0.02    -0.00   0.09   0.03
   3   6     0.00   0.00   0.00     0.11   0.22  -0.04     0.01  -0.09  -0.01
   4   6    -0.02   0.01  -0.00    -0.01  -0.04   0.01    -0.05   0.02   0.00
   5   6     0.01  -0.01   0.00     0.04   0.04  -0.00     0.03  -0.02   0.01
   6   6    -0.04   0.08  -0.01     0.05  -0.19   0.01    -0.09   0.10  -0.03
   7   6     0.04  -0.01  -0.00     0.04  -0.05  -0.02    -0.22   0.00  -0.13
   8   6     0.01   0.09   0.16    -0.05   0.05   0.10     0.02   0.07   0.14
   9   6    -0.08  -0.03   0.01     0.18   0.03  -0.09     0.12  -0.03  -0.10
  10   6     0.05   0.04  -0.01    -0.16  -0.06   0.13    -0.10   0.01   0.13
  11   6     0.03   0.01  -0.04    -0.01  -0.03   0.00    -0.09   0.14   0.10
  12   6     0.04  -0.01  -0.02     0.05  -0.05   0.01     0.01  -0.03   0.03
  13   6    -0.03  -0.00   0.03    -0.05   0.03  -0.01    -0.02   0.03  -0.05
  14   6     0.04   0.00   0.03    -0.00   0.01  -0.02     0.05   0.03  -0.04
  15   6    -0.05  -0.02  -0.02     0.01   0.00   0.01    -0.04  -0.05   0.03
  16   6     0.10  -0.03   0.18    -0.06  -0.00  -0.10    -0.00  -0.02   0.01
  17   6    -0.04  -0.03  -0.05     0.05   0.12   0.06     0.07   0.07   0.07
  18   6     0.03   0.04   0.07    -0.02  -0.13  -0.09    -0.04  -0.05  -0.07
  19   6    -0.01   0.01   0.02    -0.04   0.06   0.02     0.19  -0.05   0.18
  20   6    -0.01  -0.04  -0.15     0.05  -0.02  -0.11    -0.02  -0.03  -0.17
  21   6    -0.17   0.06   0.10    -0.09   0.04   0.06     0.09  -0.03  -0.01
  22   6     0.14  -0.11  -0.10     0.08  -0.06  -0.06    -0.06   0.03  -0.01
  23   6    -0.04  -0.01   0.13    -0.03  -0.00   0.12     0.04  -0.02  -0.13
  24   6    -0.02   0.13  -0.10    -0.01   0.08  -0.02    -0.02   0.14  -0.00
  25   6    -0.02  -0.12   0.10    -0.02  -0.10   0.02    -0.01  -0.13  -0.00
  26   6    -0.05   0.01  -0.18     0.04   0.02   0.12     0.01   0.02   0.01
  27   6     0.17   0.13   0.11    -0.04  -0.03   0.00    -0.00   0.01   0.03
  28   6    -0.20  -0.08  -0.12     0.07   0.02   0.00     0.02   0.00  -0.02
  29   6    -0.07  -0.03   0.14    -0.07  -0.02   0.12     0.06  -0.01  -0.10
  30   6    -0.04   0.01   0.00    -0.04   0.05   0.02     0.22  -0.00   0.13
  31   6     0.01  -0.01  -0.02     0.04  -0.06  -0.02    -0.19   0.05  -0.18
  32   6    -0.03  -0.04  -0.07     0.02   0.13   0.09     0.04   0.05   0.07
  33   6     0.04   0.03   0.05    -0.05  -0.12  -0.06    -0.07  -0.07  -0.07
  34   6     0.04  -0.08   0.01    -0.05   0.19  -0.01     0.09  -0.10   0.03
  35   6     0.01   0.01   0.00     0.12   0.19   0.02     0.00  -0.09  -0.03
  36   6     0.08   0.03  -0.01    -0.18  -0.03   0.09    -0.12   0.03   0.10
  37   6    -0.01  -0.09  -0.16     0.05  -0.05  -0.10    -0.02  -0.07  -0.14
  38   6     0.01   0.04   0.15    -0.05   0.02   0.11     0.02   0.03   0.17
  39   6     0.17  -0.06  -0.10     0.09  -0.04  -0.06    -0.09   0.03   0.01
  40   6    -0.14   0.11   0.10    -0.08   0.06   0.06     0.06  -0.03   0.01
  41   6     0.02  -0.13   0.10     0.01  -0.08   0.02     0.02  -0.14   0.00
  42   6     0.02   0.12  -0.10     0.02   0.10  -0.02     0.01   0.13   0.00
  43   6     0.05  -0.01   0.18    -0.04  -0.02  -0.12    -0.01  -0.02  -0.01
  44   6    -0.10   0.03  -0.18     0.06   0.00   0.10     0.00   0.02  -0.01
  45   6     0.05   0.02   0.02    -0.01  -0.00  -0.01     0.04   0.05  -0.03
  46   6    -0.01   0.01  -0.00    -0.04  -0.04   0.00    -0.03   0.02  -0.01
  47   6     0.02  -0.01   0.00     0.01   0.04  -0.01     0.05  -0.02  -0.00
  48   6    -0.00  -0.00  -0.00    -0.11  -0.22   0.04    -0.01   0.09   0.01
  49   6    -0.05  -0.04   0.01     0.16   0.06  -0.13     0.10  -0.01  -0.13
  50   6     0.03  -0.00  -0.05    -0.01  -0.05  -0.02    -0.04   0.14   0.13
  51   6    -0.03  -0.01   0.04     0.01   0.03  -0.00     0.09  -0.14  -0.10
  52   6     0.07   0.03  -0.14     0.07   0.02  -0.12    -0.06   0.01   0.10
  53   6    -0.04   0.01   0.02    -0.05   0.05  -0.01    -0.01   0.03  -0.03
  54   6     0.03   0.00  -0.03     0.05  -0.03   0.01     0.02  -0.03   0.05
  55   6    -0.04  -0.00  -0.03     0.00  -0.01   0.02    -0.05  -0.03   0.04
  56   6     0.20   0.08   0.12    -0.07  -0.02  -0.00    -0.02  -0.00   0.02
  57   6    -0.17  -0.13  -0.11     0.04   0.03  -0.00     0.00  -0.01  -0.03
  58   6     0.04   0.01  -0.13     0.03   0.00  -0.12    -0.04   0.02   0.13
  59   6    -0.03   0.00   0.05     0.01   0.05   0.02     0.04  -0.14  -0.13
  60   6    -0.05   0.08   0.02     0.06  -0.18  -0.04    -0.09   0.08  -0.00
