 Entering Gaussian System
 *********************************************
 Gaussian 98:
 frequency output generated by the xtb code
 *********************************************
                         Standard orientation:
 --------------------------------------------------------------------
  Center     Atomic     Atomic              Coordinates (Angstroms)
  Number     Number      Type              X           Y           Z
 --------------------------------------------------------------------
    1          6             0        1.353530   -1.328859    0.039606
    2          6             0        2.884561   -1.332686    0.044846
    3          6             0        2.885817    0.722169    1.122314
    4          6             0        1.355045    0.727429    1.114295
    5          1             0        3.244409   -1.854212    0.945030
    6          1             0        3.275912   -1.825157   -0.846024
    7          1             0        0.993644   -0.885806   -0.901689
    8          1             0        0.961136   -2.341170    0.142584
    9          1             0        3.243270    0.276215    2.063108
   10          1             0        3.280129    1.734037    1.022414
   11          1             0        0.961739    1.222236    2.003023
   12          1             0        0.997631    1.246828    0.211963
   13          8             0        0.853433   -0.592403    1.135705
   14          8             0        3.386156   -0.012812    0.025279
 --------------------------------------------------------------------
     1 basis functions        1 primitive gaussians
     1 alpha electrons        1 beta electrons
 
 Harmonic frequencies (cm**-1), IR intensities (KM/Mole),
 Raman scattering activities (A**4/amu), Raman depolarization ratios,
 reduced masses (AMU), force constants (mDyne/A) and normal coordinates:
                      1                      2                      3
                        a                      a                      a 
 Frequencies --   222.9221               283.7066               397.4359
 Red. masses --     6.3735                10.6025                 7.6720
 Frc consts  --     0.0000                 0.0000                 0.0000
 IR Inten    --     0.1162                 0.7689                 0.0011
 Raman Activ --     0.0000                 0.0000                 0.0000
 Depolar     --     0.0000                 0.0000                 0.0000
 Atom AN      X      Y      Z        X      Y      Z        X      Y      Z
   1   6     0.02   0.20  -0.26     0.12  -0.19   0.09    -0.01  -0.22   0.10
   2   6    -0.02  -0.10   0.31     0.12   0.04   0.21     0.01  -0.04  -0.23
   3   6     0.02   0.19  -0.26     0.12  -0.19   0.09     0.02   0.22  -0.10
   4   6    -0.02  -0.10   0.31     0.12   0.04   0.21    -0.02   0.04   0.24
   5   1    -0.13   0.07   0.20     0.06   0.15   0.13     0.09  -0.16  -0.19
   6   1     0.09  -0.15   0.20     0.07  -0.08   0.13    -0.08   0.12  -0.18
   7   1     0.13   0.21  -0.05     0.06  -0.20  -0.05    -0.09  -0.24  -0.02
   8   1    -0.09   0.08  -0.23     0.07  -0.06   0.14     0.08  -0.08   0.20
   9   1     0.13   0.21  -0.05     0.06  -0.20  -0.05     0.09   0.24   0.02
  10   1    -0.09   0.08  -0.23     0.07  -0.06   0.14    -0.08   0.08  -0.20
  11   1     0.09  -0.15   0.20     0.07  -0.08   0.13     0.08  -0.12   0.18
  12   1    -0.13   0.07   0.20     0.06   0.15   0.13    -0.09   0.16   0.19
  13   8     0.00  -0.13  -0.07    -0.28   0.18  -0.34    -0.26   0.12  -0.24
  14   8    -0.00  -0.13  -0.07    -0.28   0.18  -0.35     0.26  -0.13   0.24
                      4                      5                      6
                        a                      a                      a 
 Frequencies --   445.7673               463.0354               608.7554
 Red. masses --    13.8972                 9.1038                 6.8483
 Frc consts  --     0.0000                 0.0000                 0.0000
 IR Inten    --     0.0001                 0.0011                 0.5860
 Raman Activ --     0.0000                 0.0000                 0.0000
 Depolar     --     0.0000                 0.0000                 0.0000
 Atom AN      X      Y      Z        X      Y      Z        X      Y      Z
   1   6     0.04  -0.19  -0.18    -0.30  -0.22  -0.14    -0.15  -0.11  -0.14
   2   6    -0.04  -0.26  -0.06    -0.30   0.24   0.10    -0.15   0.18   0.01
   3   6    -0.04   0.19   0.18     0.30   0.22   0.14    -0.15  -0.10  -0.14
   4   6     0.04   0.26   0.06     0.30  -0.24  -0.10    -0.15   0.18   0.01
   5   1    -0.01  -0.09  -0.03    -0.19   0.12   0.10    -0.23   0.15   0.14
   6   1     0.07   0.02  -0.03     0.02   0.02   0.11     0.09  -0.10   0.15
   7   1     0.01  -0.08  -0.06    -0.19  -0.15  -0.04    -0.23  -0.20  -0.04
   8   1    -0.07  -0.01   0.04     0.02  -0.10   0.05     0.09  -0.06   0.17
   9   1    -0.01   0.08   0.06     0.19   0.15   0.04    -0.23  -0.20  -0.04
  10   1     0.07   0.01  -0.03    -0.02   0.10  -0.05     0.09  -0.07   0.17
  11   1    -0.07  -0.02   0.03    -0.02  -0.02  -0.11     0.09  -0.10   0.15
  12   1     0.01   0.09   0.03     0.19  -0.12  -0.10    -0.23   0.15   0.14
  13   8     0.54   0.09  -0.16    -0.00  -0.17  -0.09     0.34  -0.01   0.01
  14   8    -0.54  -0.09   0.16     0.00   0.17   0.09     0.34  -0.01   0.01
                      7                      8                      9
                        a                      a                      a 
 Frequencies --   860.8407               879.6211               928.0555
 Red. masses --     5.3035                10.4920                 8.8747
 Frc consts  --     0.0000                 0.0000                 0.0000
 IR Inten    --     0.0024                 0.0020                 0.6136
 Raman Activ --     0.0000                 0.0000                 0.0000
 Depolar     --     0.0000                 0.0000                 0.0000
 Atom AN      X      Y      Z        X      Y      Z        X      Y      Z
   1   6    -0.13  -0.19   0.14    -0.20  -0.28  -0.17    -0.30  -0.17  -0.08
   2   6    -0.13  -0.01   0.24     0.20  -0.30  -0.14     0.29  -0.17  -0.09
   3   6     0.13   0.19  -0.14     0.20   0.28   0.17    -0.30  -0.17  -0.08
   4   6     0.13   0.01  -0.24    -0.20   0.30   0.14     0.29  -0.17  -0.09
   5   1     0.21  -0.11  -0.11     0.01   0.02   0.04     0.04   0.04   0.04
   6   1    -0.21   0.18  -0.11     0.17  -0.13   0.04     0.28   0.01   0.04
   7   1     0.21   0.15   0.03    -0.01   0.04  -0.00    -0.04   0.05   0.01
   8   1    -0.21  -0.01  -0.21    -0.17  -0.04  -0.13    -0.28   0.04  -0.01
   9   1    -0.21  -0.15  -0.03     0.01  -0.04   0.00    -0.04   0.05   0.01
  10   1     0.21   0.01   0.21     0.17   0.04   0.14    -0.28   0.04  -0.02
  11   1     0.21  -0.18   0.11    -0.17   0.13  -0.04     0.28   0.01   0.04
  12   1    -0.21   0.11   0.11    -0.01  -0.02  -0.04     0.04   0.04   0.04
  13   8     0.00  -0.16  -0.08    -0.22  -0.10   0.19     0.00   0.26   0.13
  14   8     0.00   0.16   0.08     0.22   0.10  -0.19     0.00   0.26   0.13
                     10                     11                     12
                        a                      a                      a 
 Frequencies --   930.0053              1026.4458              1044.7264
 Red. masses --     9.7613                 7.8668                 8.1061
 Frc consts  --     0.0000                 0.0000                 0.0000
 IR Inten    --     1.1086                 0.2556                 0.0005
 Raman Activ --     0.0000                 0.0000                 0.0000
 Depolar     --     0.0000                 0.0000                 0.0000
 Atom AN      X      Y      Z        X      Y      Z        X      Y      Z
   1   6     0.13  -0.10  -0.23    -0.09  -0.35  -0.11    -0.35   0.16   0.05
   2   6     0.13   0.24  -0.05    -0.09   0.29   0.23     0.35   0.13   0.11
   3   6     0.13  -0.09  -0.23    -0.09  -0.35  -0.11     0.34  -0.16  -0.05
   4   6     0.13   0.24  -0.05    -0.09   0.29   0.23    -0.35  -0.13  -0.10
   5   1    -0.07   0.01   0.01     0.18   0.01  -0.06     0.13  -0.01  -0.01
   6   1     0.23   0.16   0.01    -0.16   0.18  -0.06     0.19   0.20  -0.02
   7   1    -0.07  -0.01  -0.00     0.18   0.04  -0.05    -0.13  -0.02  -0.00
   8   1     0.22  -0.10  -0.13    -0.16  -0.05  -0.18    -0.19   0.10   0.17
   9   1    -0.07  -0.01  -0.00     0.18   0.04  -0.05     0.13   0.02   0.00
  10   1     0.22  -0.10  -0.13    -0.16  -0.05  -0.18     0.19  -0.10  -0.17
  11   1     0.23   0.16   0.01    -0.16   0.18  -0.06    -0.19  -0.19   0.02
  12   1    -0.07   0.01   0.01     0.18   0.01  -0.06    -0.13   0.01   0.01
  13   8    -0.30  -0.14   0.27     0.15   0.01  -0.01     0.11   0.04  -0.08
  14   8    -0.30  -0.14   0.27     0.15   0.01  -0.01    -0.11  -0.04   0.08
                     13                     14                     15
                        a                      a                      a 
 Frequencies --  1069.7994              1096.1311              1111.6738
 Red. masses --     6.3657                12.8060                 7.1985
 Frc consts  --     0.0000                 0.0000                 0.0000
 IR Inten    --     0.0866                 0.0018                 0.0634
 Raman Activ --     0.0000                 0.0000                 0.0000
 Depolar     --     0.0000                 0.0000                 0.0000
 Atom AN      X      Y      Z        X      Y      Z        X      Y      Z
   1   6    -0.16   0.20  -0.23     0.06  -0.24  -0.21    -0.10   0.14  -0.28
   2   6     0.16  -0.08   0.30     0.07   0.31   0.08     0.10  -0.15   0.27
   3   6    -0.16   0.20  -0.23    -0.07   0.23   0.21     0.07  -0.13   0.30
   4   6     0.16  -0.08   0.30    -0.06  -0.30  -0.07    -0.07   0.17  -0.28
   5   1     0.11  -0.24  -0.08     0.03  -0.04  -0.04     0.14  -0.17  -0.07
   6   1    -0.04   0.21  -0.09     0.03   0.14  -0.02    -0.25  -0.01  -0.07
   7   1    -0.11  -0.20  -0.15     0.03   0.05   0.01    -0.14  -0.15  -0.10
   8   1     0.04   0.04   0.22     0.03  -0.06  -0.13     0.24  -0.06   0.03
   9   1    -0.11  -0.20  -0.15    -0.03  -0.05  -0.01     0.13   0.16   0.11
  10   1     0.04   0.04   0.22    -0.03   0.06   0.13    -0.24   0.06  -0.04
  11   1    -0.04   0.21  -0.09    -0.03  -0.14   0.02     0.24   0.01   0.07
  12   1     0.11  -0.24  -0.08    -0.03   0.04   0.04    -0.13   0.18   0.07
  13   8     0.00  -0.06  -0.03     0.00   0.44   0.23    -0.01  -0.12   0.18
  14   8    -0.00  -0.06  -0.03     0.00  -0.44  -0.23     0.01   0.08  -0.20
                     16                     17                     18
                        a                      a                      a 
 Frequencies --  1113.8341              1175.4771              1198.5501
 Red. masses --    11.8678                 2.0758                 3.8682
 Frc consts  --     0.0000                 0.0000                 0.0000
 IR Inten    --     1.3378                 0.0022                 0.5499
 Raman Activ --     0.0000                 0.0000                 0.0000
 Depolar     --     0.0000                 0.0000                 0.0000
 Atom AN      X      Y      Z        X      Y      Z        X      Y      Z
   1   6    -0.28   0.11   0.24     0.01  -0.01  -0.15     0.12   0.02   0.12
   2   6     0.28   0.26  -0.04     0.01   0.13  -0.08    -0.12   0.12  -0.05
   3   6    -0.29   0.12   0.21    -0.01   0.01   0.15     0.12   0.02   0.12
   4   6     0.29   0.24  -0.02    -0.01  -0.13   0.08    -0.12   0.12  -0.05
   5   1     0.11   0.12   0.02     0.23   0.25   0.01    -0.16  -0.06  -0.00
   6   1     0.01  -0.06   0.03    -0.24  -0.23   0.02     0.31   0.26   0.01
   7   1    -0.11   0.09   0.09     0.23  -0.15  -0.20     0.16  -0.03  -0.05
   8   1    -0.01  -0.01  -0.07    -0.24   0.12   0.20    -0.31   0.16   0.21
   9   1    -0.12   0.07   0.08    -0.23   0.15   0.20     0.16  -0.03  -0.04
  10   1     0.01  -0.02  -0.06     0.24  -0.12  -0.20    -0.31   0.16   0.21
  11   1    -0.01  -0.06   0.02     0.24   0.23  -0.02     0.31   0.26   0.01
  12   1     0.12   0.10   0.01    -0.23  -0.25  -0.01    -0.16  -0.06  -0.00
  13   8     0.00  -0.34  -0.19     0.00   0.03   0.01    -0.00  -0.20  -0.11
  14   8    -0.00  -0.35  -0.17     0.00  -0.03  -0.01    -0.00  -0.20  -0.11
                     19                     20                     21
                        a                      a                      a 
 Frequencies --  1267.6065              1270.5011              1300.0315
 Red. masses --     4.6410                 4.8891                 3.1756
 Frc consts  --     0.0000                 0.0000                 0.0000
 IR Inten    --     0.6785                 0.0018                 0.0052
 Raman Activ --     0.0000                 0.0000                 0.0000
 Depolar     --     0.0000                 0.0000                 0.0000
 Atom AN      X      Y      Z        X      Y      Z        X      Y      Z
   1   6    -0.02  -0.08   0.14    -0.17  -0.04   0.09    -0.17   0.11   0.06
   2   6    -0.02  -0.07   0.15     0.17   0.05  -0.09    -0.17  -0.11  -0.06
   3   6    -0.02  -0.08   0.14     0.17   0.04  -0.09     0.17  -0.11  -0.06
   4   6    -0.02  -0.07   0.15    -0.17  -0.05   0.09     0.17   0.11   0.06
   5   1    -0.22  -0.26  -0.02     0.16   0.16   0.03     0.25   0.20   0.00
   6   1     0.14   0.22  -0.03    -0.21  -0.27   0.02     0.27   0.15   0.02
   7   1    -0.22   0.17   0.20    -0.17   0.12   0.12     0.25  -0.12  -0.17
   8   1     0.14  -0.10  -0.19     0.21  -0.14  -0.24     0.27  -0.10  -0.11
   9   1    -0.22   0.17   0.20     0.17  -0.12  -0.12    -0.26   0.12   0.17
  10   1     0.14  -0.10  -0.19    -0.21   0.14   0.24    -0.27   0.11   0.11
  11   1     0.14   0.22  -0.03     0.21   0.27  -0.02    -0.27  -0.15  -0.02
  12   1    -0.22  -0.26  -0.02    -0.17  -0.17  -0.03    -0.26  -0.21  -0.00
  13   8     0.08   0.13  -0.24     0.12   0.11  -0.21    -0.00   0.07   0.04
  14   8     0.08   0.13  -0.24    -0.12  -0.11   0.21    -0.00  -0.07  -0.04
                     22                     23                     24
                        a                      a                      a 
 Frequencies --  1311.9388              1327.0165              1350.3402
 Red. masses --     4.0469                 2.9949                 3.7613
 Frc consts  --     0.0000                 0.0000                 0.0000
 IR Inten    --     0.5413                 0.2493                 0.0005
 Raman Activ --     0.0000                 0.0000                 0.0000
 Depolar     --     0.0000                 0.0000                 0.0000
 Atom AN      X      Y      Z        X      Y      Z        X      Y      Z
   1   6     0.20  -0.12  -0.11    -0.17   0.00   0.11    -0.20   0.01   0.13
   2   6     0.20   0.16   0.03     0.17   0.09  -0.06     0.20   0.11  -0.07
   3   6     0.20  -0.11  -0.11    -0.18   0.00   0.11     0.20  -0.01  -0.13
   4   6     0.20   0.15   0.03     0.18   0.09  -0.06    -0.20  -0.11   0.07
   5   1    -0.23  -0.16   0.00    -0.36  -0.24  -0.00    -0.35  -0.22   0.00
   6   1    -0.28  -0.16  -0.02    -0.09  -0.11  -0.00    -0.10  -0.10  -0.01
   7   1    -0.23   0.09   0.14     0.36  -0.14  -0.20     0.35  -0.12  -0.18
   8   1    -0.28   0.11   0.12     0.09  -0.06  -0.09     0.10  -0.06  -0.08
   9   1    -0.23   0.09   0.13     0.36  -0.14  -0.20    -0.35   0.12   0.18
  10   1    -0.27   0.11   0.12     0.09  -0.06  -0.09    -0.10   0.06   0.08
  11   1    -0.28  -0.16  -0.02    -0.09  -0.11  -0.00     0.10   0.10   0.01
  12   1    -0.23  -0.16   0.00    -0.36  -0.24  -0.00     0.35   0.22  -0.00
  13   8    -0.09  -0.01   0.01    -0.00   0.06   0.03     0.08  -0.01   0.03
  14   8    -0.09  -0.00   0.01     0.00   0.06   0.03    -0.08   0.02  -0.03
                     25                     26                     27
                        a                      a                      a 
 Frequencies --  1445.1052              1449.6163              1451.2722
 Red. masses --     1.8215                 1.9381                 1.8667
 Frc consts  --     0.0000                 0.0000                 0.0000
 IR Inten    --     0.0005                 0.0849                 0.0743
 Raman Activ --     0.0000                 0.0000                 0.0000
 Depolar     --     0.0000                 0.0000                 0.0000
 Atom AN      X      Y      Z        X      Y      Z        X      Y      Z
   1   6    -0.09  -0.05  -0.07     0.08   0.07   0.09     0.09   0.07   0.08
   2   6    -0.09   0.09   0.00     0.08  -0.12  -0.01    -0.09   0.10   0.01
   3   6     0.09   0.06   0.08     0.08   0.07   0.09     0.09   0.07   0.08
   4   6     0.09  -0.09  -0.00     0.08  -0.12  -0.01    -0.09   0.10   0.01
   5   1     0.14  -0.24  -0.20    -0.14   0.24   0.21     0.16  -0.22  -0.19
   6   1     0.15  -0.22   0.20    -0.15   0.23  -0.20     0.15  -0.21   0.20
   7   1     0.14   0.30   0.08    -0.14  -0.30  -0.08    -0.16  -0.30  -0.08
   8   1     0.15  -0.04   0.30    -0.15   0.03  -0.29    -0.16   0.04  -0.29
   9   1    -0.14  -0.30  -0.09    -0.14  -0.30  -0.08    -0.17  -0.30  -0.08
  10   1    -0.15   0.04  -0.30    -0.14   0.04  -0.29    -0.16   0.05  -0.30
  11   1    -0.15   0.23  -0.20    -0.15   0.22  -0.20     0.16  -0.21   0.20
  12   1    -0.14   0.24   0.20    -0.14   0.24   0.20     0.16  -0.23  -0.20
  13   8    -0.00  -0.05  -0.02     0.01  -0.01   0.02     0.00   0.03   0.01
  14   8    -0.00   0.04   0.02     0.01  -0.01   0.01     0.00   0.03   0.01
                     28                     29                     30
                        a                      a                      a 
 Frequencies --  1455.1290              2863.3367              2863.9862
 Red. masses --     1.9712                 1.6545                 1.6772
 Frc consts  --     0.0000                 0.0000                 0.0000
 IR Inten    --     0.0010                 0.0735                 0.1287
 Raman Activ --     0.0000                 0.0000                 0.0000
 Depolar     --     0.0000                 0.0000                 0.0000
 Atom AN      X      Y      Z        X      Y      Z        X      Y      Z
   1   6    -0.08  -0.08  -0.10    -0.05   0.08  -0.13    -0.01   0.03  -0.04
   2   6     0.08  -0.12  -0.01     0.05  -0.06   0.14     0.01  -0.02   0.04
   3   6     0.08   0.08   0.09     0.02  -0.02   0.04    -0.05   0.08  -0.13
   4   6    -0.08   0.12   0.01    -0.02   0.02  -0.04     0.05  -0.06   0.14
   5   1    -0.15   0.23   0.20    -0.21   0.31  -0.54    -0.06   0.08  -0.15
   6   1    -0.16   0.21  -0.20     0.02  -0.02   0.00     0.01  -0.01  -0.01
   7   1     0.15   0.30   0.08     0.22  -0.27   0.57     0.06  -0.08   0.15
   8   1     0.16  -0.05   0.29    -0.02  -0.01  -0.02    -0.01  -0.01  -0.00
   9   1    -0.15  -0.29  -0.08    -0.06   0.07  -0.16     0.22  -0.27   0.56
  10   1    -0.16   0.04  -0.29     0.00  -0.01   0.01    -0.02  -0.01  -0.02
  11   1     0.16  -0.21   0.20    -0.00   0.00  -0.01     0.02  -0.02   0.00
  12   1     0.15  -0.23  -0.20     0.06  -0.09   0.15    -0.21   0.31  -0.54
  13   8    -0.01   0.01  -0.01     0.00   0.00  -0.01    -0.00  -0.01   0.00
  14   8     0.01  -0.01   0.01    -0.00  -0.01   0.01     0.00  -0.01  -0.01
                     31                     32                     33
                        a                      a                      a 
 Frequencies --  2876.1650              2879.9856              2996.3334
 Red. masses --     1.7672                 1.7326                 1.7366
 Frc consts  --     0.0000                 0.0000                 0.0000
 IR Inten    --     0.0452                 0.6202                 0.2280
 Raman Activ --     0.0000                 0.0000                 0.0000
 Depolar     --     0.0000                 0.0000                 0.0000
 Atom AN      X      Y      Z        X      Y      Z        X      Y      Z
   1   6     0.05  -0.06   0.11    -0.04   0.05  -0.10     0.04   0.11  -0.02
   2   6     0.05  -0.06   0.12    -0.04   0.05  -0.10     0.04  -0.04  -0.10
   3   6    -0.04   0.06  -0.10    -0.05   0.06  -0.11     0.05   0.12  -0.02
   4   6    -0.04   0.05  -0.10    -0.05   0.06  -0.11     0.05  -0.06  -0.12
   5   1    -0.17   0.24  -0.43     0.14  -0.21   0.37     0.01  -0.01  -0.01
   6   1     0.01  -0.01   0.01    -0.00   0.00  -0.02    -0.15   0.19   0.35
   7   1    -0.17   0.21  -0.44     0.14  -0.18   0.38     0.01   0.01   0.00
   8   1     0.01  -0.00   0.01    -0.00   0.01  -0.01    -0.16  -0.42   0.05
   9   1     0.14  -0.19   0.38     0.16  -0.21   0.44     0.01   0.01   0.00
  10   1    -0.01  -0.00  -0.01    -0.00   0.01  -0.02    -0.18  -0.46   0.05
  11   1    -0.01   0.01  -0.01    -0.01   0.01  -0.02    -0.19   0.25   0.45
  12   1     0.14  -0.21   0.37     0.16  -0.24   0.42     0.01  -0.01  -0.01
  13   8    -0.00   0.01   0.01     0.00   0.01  -0.01    -0.00  -0.00  -0.00
  14   8    -0.00  -0.01  -0.00     0.00   0.01  -0.01     0.00   0.00   0.00
                     34                     35                     36
                        a                      a                      a 
 Frequencies --  2996.9645              2997.3893              3001.5308
 Red. masses --     1.7277                 1.7342                 1.7172
 Frc consts  --     0.0000                 0.0000                 0.0000
 IR Inten    --     0.0202                 0.0093                 0.3788
 Raman Activ --     0.0000                 0.0000                 0.0000
 Depolar     --     0.0000                 0.0000                 0.0000
 Atom AN      X      Y      Z        X      Y      Z        X      Y      Z
   1   6    -0.05  -0.12   0.02    -0.05  -0.12   0.01     0.05   0.12  -0.01
   2   6    -0.06   0.06   0.12     0.04  -0.06  -0.10    -0.05   0.06   0.10
   3   6     0.04   0.10  -0.01     0.05   0.13  -0.01     0.05   0.12  -0.01
   4   6     0.05  -0.05  -0.10    -0.04   0.05   0.09    -0.05   0.06   0.10
   5   1    -0.00   0.00   0.02     0.00  -0.00  -0.02     0.00  -0.01   0.03
   6   1     0.20  -0.25  -0.46    -0.16   0.20   0.37     0.17  -0.22  -0.40
   7   1    -0.00  -0.02   0.01    -0.00  -0.02   0.01    -0.00   0.02  -0.02
   8   1     0.17   0.45  -0.05     0.18   0.46  -0.05    -0.17  -0.45   0.05
   9   1     0.00   0.02  -0.01     0.00   0.02  -0.01    -0.00   0.02  -0.02
  10   1    -0.14  -0.37   0.04    -0.19  -0.50   0.05    -0.17  -0.45   0.05
  11   1    -0.17   0.21   0.39     0.15  -0.19  -0.35     0.17  -0.21  -0.38
  12   1     0.00  -0.00  -0.02    -0.00   0.00   0.02     0.00  -0.01   0.03
  13   8    -0.00  -0.01  -0.01     0.00  -0.00   0.00    -0.00   0.01   0.00
  14   8     0.00   0.01   0.01    -0.00   0.00  -0.00     0.00   0.01   0.00
