 
        ______________________________________
       |                                      |
       |           ==================         |
       |                 x T B                |
       |           ==================         |
       |               S. Grimme              |
       |        Universitaet Bonn, MCTC       |
       |         2015-18, Version 5.8.1       |
       |      Sun May  6 11:39:08 CEST 2018   |
       |______________________________________|
 
        This code comes without any warranty
        for non-commercial, academia use only.
        Preliminary GFN2 test version.
        Test license to: Dow Chemical Company
        Cite GFN-xTB work as:
        S. Grimme, C. Bannwarth, P. Shushkov
        JCTC, 13 (2017) 1989-2009
        for GFN2:
        C. Bannwarth, S. Ehlert, S. Grimme
        to be published.
        sTDA-xTB:
        S. Grimme  &  C. Bannwarth, JCP 145 (2016) 054103
        in the mass-spec context additionally:
        V. Asgeirsson, C.Bauer, S. Grimme, Chem. Sci. 8 (2017) 4879
 
        with help from
        P. Shushkov, G. Brandenburg, S. Dohm, J. Pisarek,
        F. März, M. Checinski, S. Ehrlich, S. Spicher, 
        P. Pracht, E. Caldeweyher, S. Ehlert, and C. Bannwarth.
 
        usage        :
        xtb <coord_file> [options]
        where <coord_file> is a valid file of TM)
        (*coord, Bohr) or xmol (*xyz, Angstroem)
        format.

        options:
        -chrg <int>   : molecular charge
        -uhf  <int>   : # of unpaired electrons(=2*S)
        -nox          : skip second, extended part in sTDA-xTB
        -pop          : do population analysis
                      : (default for -nox)
        -mowr <real>  : cut MO write above (def.3 Eh)
        -molden       : write formatted molden file
        -parx <file>  : read parameters for sTDA-xTB
                        calc (def:~/.param_stda2.xtb)
        -parv <file>  : read parameters for vTB part in
                        sTDA-xTB (def: ~/.param_stda1.xtb)
        -xtemp <real> : el. temp for xTB (def. 0 K)
        -etemp <real> : el. temp for GFN (def. 300 K)
        -fod          : calculate the FOD and write
                        molden.input file with
                        appropriate occupations
                        for plotting. Def. T=12500 K
 
        -gfn1         : use GFN-xTB
        -gfn2         : use GFN2-xTB
        -gfn2d3       : GFN2-xTB with D3 instead of D4
        -grad         : GFNn-xTB gradient
        -acc <real>   : GFNn-xTB accuracy (def. 1.0)
        -opt [level]  : optimize at GFNn-xTB
                      : level=crude,vloose,loose,
                      :       tight,vtight
        -hess         : compute Hessian at GFNn-xTB
        -ohess        : optimize and compute Hessian
        -omd          : optimize and do MD
        -siman        : conformational search
        -screen       : opt. loop over ensemble
        -gmd          : annealed MD for GMD procedure
        -modef        : vib mode following
        -gbsa [string1] [string2]
                        use GBSA implicit solvent
                        for solvent [string1] and
                        solvation state [string2]=
                        reference, bar1M (default=1M)
        additional GFN/opt/MD/siman options read from
        $XTBHOME/.xtbrc or $set in coordinate file
 
       spin and charge state information can be on:
       <.CHRG> (charge) and <.UHF> (=nalpha-nbeta)
       -uhf and -chrg override the file info.
       useful machine settings:
       setenv MKL_NUM_THREADS <NCORE_ON_YOUR_MACHINE>
       setenv OMP_STACKSIZE 500m
       limit stacksize unlimited
 
       total energies in Eh, gaps/HL energies in eV
       please read REVISION and HOWTO files carefully
          72  days left until this code expires
 =============================
  # OMP threads =           2
 =============================
 
 xtbhome directory:/home/ua25450/dftb/
 
 argument            1 :-ohess
 
 name of molecule           :
 comment line               :
 number of atoms            :    18
 number of electrons        :    42
 charge                     :  0
 spin                       : 0.0
 first test random number   :  0.2642
 
 
 -----------------------------------------
  G F N (Geometry, Frequency, Non-covalent)
        parametrization, gfnver=           3
     D4 dispersion model
 /home/ua25450/dftb/.param_gfn2.xtb
 -----------------------------------------
      method parameters     
 k(s)        :  1.8500
 k(p)        :  2.2300
 k(d)        :  2.2300
 k(f)        :  2.0000
 kEN (H0ij)  : -2.0000
 D3 a1       :  0.5200
 D3 a2       :  5.0000
 D3 s8       :  2.7000
 D3atm       :  5.0000
 alphaj      :  2.0000
 
     -------------------------
     ! NO SOLVENT MODEL USED !
     -------------------------
 
 doing EN charges ...
 sum q :  0.1998401D-14
 point charge moment (au)
     X       Y       Z   
  -0.0000   0.0013  -0.0001  total (Debye):    0.003
 
            Z     q(EN)     CN     RAES       Cart. coordinates
     1  C   4.0   -0.04    3.27    3.05    -2.16224    -0.67386    -0.09341
     2  C   4.0   -0.04    3.27    3.05     0.44928    -0.67519    -0.00569
     3  C   4.0   -0.04    3.34    3.06     1.74165     1.59663     0.06396
     4  C   4.0   -0.00    3.38    3.07     0.46440     3.88696     0.04754
     5  C   4.0   -0.00    3.38    3.07    -2.17630     3.88825    -0.03970
     6  C   4.0   -0.04    3.34    3.06    -3.45412     1.59924    -0.10946
     7  H   1.0    0.04    1.01    1.43    -3.19265    -2.43508    -0.14906
     8  H   1.0    0.04    1.01    1.43     1.47923    -2.43749     0.00835
     9  H   1.0    0.04    1.01    1.43    -5.49625     1.59781    -0.17750
    10  C   4.0   -0.14    4.09    3.78    -3.61524     6.32718    -0.05987
    11  H   1.0    0.05    1.00    1.43    -5.63908     5.97792    -0.10795
    12  H   1.0    0.04    1.00    1.43    -3.18279     7.44021     1.61778
    13  H   1.0    0.04    1.00    1.43    -3.10710     7.45608    -1.70564
    14  H   1.0    0.04    1.01    1.43     3.78375     1.59298     0.13221
    15  C   4.0   -0.14    4.09    3.78     1.90380     6.32458     0.12133
    16  H   1.0    0.04    1.00    1.43     1.48971     7.46269    -1.54432
    17  H   1.0    0.04    1.00    1.43     1.37814     7.42911     1.77795
    18  H   1.0    0.05    1.00    1.43     3.92690     5.97378     0.18586
 
  Z AO/shell   Hii/eV     exponent
  1     Wed Apr 25 08:07:45 CEST 2018   EN: 2.200 GM2: 0.406  GM3: 0.0800  RAES: 1.40
     1s    -10.707211    1.230000
  6     Wed Apr 25 08:07:45 CEST 2018   EN: 2.550 GM2: 0.538  GM3: 0.1500  RAES: 3.00
     2s    -13.970922    2.096432
     2p    -10.063292    1.800000
 
Molecule has the following symmetry elements: (C2) 2*(sigma) 
It seems to be the C2v point group
c2v symmetry found (for desy threshold:  0.10E+00) used in thermo
 no old-style atom pair restraing (fixing) potential
 
             =======================================
             |                                     |
             |        S C C  calculation           |
             |                                     |
             =======================================
 #proc     :            2
 Ncao      :           42
 Nao       :           42
 Nel       :           42
 T(el)     :   300.0
 intcut    :    25.0
 scfconv   :  0.100E-05
   qconv   :  0.100E-03
 intneglect:  0.100E-07
 broydamp  :      0.400
 Nshell    :           26
  q data taken from xtbrestart
  CAMM data taken from xtbrestart
 iter      E             dE          RMSdq      gap      omega  full diag
   1    -22.6337928 -0.226338E+02  0.279E-06    4.67       0.0  T
   2    -22.6337928 -0.284217E-13  0.156E-06    4.67   15070.3  T
   3    -22.6337928 -0.106581E-13  0.864E-07    4.67   27290.1  T
speedup  1.00
cpu  time for SCC    0.01 s
wall time for SCC    0.01 s

          eigenvalues
 #    :           9         10         11         12         13         14         15         16
 occ. :        2.000      2.000      2.000      2.000      2.000      2.000      2.000      2.000
 eps  :       -13.690    -13.586    -13.300    -12.850    -12.762    -12.679    -12.511    -12.334
 #    :          17         18         19         20         21         22         23         24
 occ. :        2.000      2.000      2.000      2.000      2.000      0.000      0.000      0.000
 eps  :       -12.294    -11.295    -11.269    -10.631    -10.424     -5.753     -5.745     -2.279
 #    :          25         26         27         28         29         30         31         32
 occ. :        0.000      0.000      0.000      0.000      0.000      0.000      0.000      0.000
 eps  :         2.953      3.114      3.902      4.084      4.356      5.267      5.322      5.324
 

   #   Z            q   n(s)   n(p)   n(d)      C6AA      α(0)    relVol
   1   6 C     -0.036  1.078  2.958  0.000    28.913     8.826     0.714
   2   6 C     -0.036  1.078  2.958  0.000    28.913     8.826     0.714
   3   6 C     -0.041  1.081  2.961  0.000    29.021     8.845     0.716
   4   6 C      0.007  1.082  2.911  0.000    27.796     8.654     0.700
   5   6 C      0.007  1.082  2.911  0.000    27.796     8.654     0.700
   6   6 C     -0.041  1.081  2.961  0.000    29.021     8.845     0.716
   7   1 H      0.025  0.975  0.000  0.000     2.648     2.545     0.503
   8   1 H      0.025  0.975  0.000  0.000     2.648     2.545     0.503
   9   1 H      0.026  0.974  0.000  0.000     2.641     2.541     0.503
  10   6 C     -0.106  1.035  3.072  0.000    22.653     6.794     0.550
  11   1 H      0.038  0.962  0.000  0.000     2.465     2.455     0.486
  12   1 H      0.043  0.957  0.000  0.000     2.398     2.422     0.479
  13   1 H      0.043  0.957  0.000  0.000     2.398     2.422     0.479
  14   1 H      0.026  0.974  0.000  0.000     2.641     2.541     0.503
  15   6 C     -0.106  1.035  3.072  0.000    22.653     6.794     0.550
  16   1 H      0.043  0.957  0.000  0.000     2.398     2.421     0.479
  17   1 H      0.043  0.957  0.000  0.000     2.399     2.422     0.479
  18   1 H      0.038  0.962  0.000  0.000     2.465     2.455     0.486

 Mol. C6AA /au*bohr^6 :       3291.923278
 Mol. C8AA /au*bohr^6 :      77547.321220
 Mol. a(0) /au        :         91.003719

 
 Wiberg/Mayer (AO) data. WBOs > 0.1 written file <wbo>
 largest (>0.05) Wiberg bond orders for each atom
           total WBO             WBO to atom ...
     1  C   3.993    C    2 1.440    C    6 1.438    H    7 0.972    C    4 0.108
     2  C   3.993    C    1 1.440    C    3 1.438    H    8 0.972    C    5 0.108
     3  C   3.992    C    2 1.438    C    4 1.422    H   14 0.969    C    6 0.107
     4  C   3.989    C    3 1.422    C    5 1.376    C   15 1.028    C    1 0.108
     5  C   3.989    C    6 1.422    C    4 1.376    C   10 1.028    C    2 0.108
     6  C   3.992    C    1 1.438    C    5 1.422    H    9 0.969    C    3 0.107
     7  H   0.999    C    1 0.972
     8  H   0.999    C    2 0.972
     9  H   0.999    C    6 0.969
    10  C   3.997    C    5 1.028    H   11 0.986    H   12 0.971    H   13 0.971
    11  H   0.998    C   10 0.986
    12  H   0.998    C   10 0.971
    13  H   0.998    C   10 0.971
    14  H   0.999    C    3 0.969
    15  C   3.997    C    4 1.028    H   18 0.986    H   16 0.971    H   17 0.971
    16  H   0.998    C   15 0.971
    17  H   0.998    C   15 0.971
    18  H   0.998    C   15 0.986
 
molecular dipole:
                 x           y           z       tot (Debye)
 q only:        0.000       0.336       0.003
   full:        0.364       0.364       0.003       0.926
molecular quadrupole (traceless):
                xx          xy          yy          xz          yz          zz
 q only:       -0.578      -0.432       3.114       0.061       0.040      -2.535
  q+dip:        1.325      -0.470       4.681       0.243       0.093      -6.007
   full:        0.003      -0.469       3.702       0.122       0.055      -3.705
 SCC converged in            3  cycles
 
SCC energy    :     -22.6337928
rep           :       0.4129473
ES            :       0.0029875
AES           :       0.0048694
AXC           :       0.0145411
disp          :      -0.0136137
XB            :       0.0000000
fix           :       0.0000000
total E       :     -22.2207960
atomizationE  :       5.3029393     3327.65
(atE without considerung molecular charge,
 total energy contains solvation terms)
H-L gap (eV)  :          4.6718
 
             =======================================
             |                                     |
             |    Approximate Normal Coordinate    |
             |   Rational Function Optimization    |
             |                                     |
             =======================================
Ref. for RF algo: F.Eckert, P.Pulay, H.-J.Werner
                  J.Comput.Chem. 18 (1997) 1473.
ANC idea implemented by S. Grimme in the 2000ers (unpublished)
restraining potential by S. Ehrlich.
dumping coords to <xtbopt.coord> and <xtbopt.log
 optlevel               1
 Maxcycle             200
 Maxmicro              20
 Econv         1.000000000000000E-006
 Gconv         8.000000000000000E-004
 Maxdispl       1.00000000000000     
 Hlow          1.000000000000000E-002
 S6             20.0000000000000     
 Nvar               48

generating ANC from read Hessian ...
 Shifting diagonal of input Hessian by   9.429454135965029E-003
 Lowest  eigenvalues of input Hessian
   -0.000000   -0.000000   -0.000000   -0.000000   -0.000000    0.000000
    0.010000    0.010656    0.012129    0.016456    0.017961    0.025776
    0.026162    0.030413    0.045545    0.051874    0.055814    0.060781
 Highest eigenvalues
    0.815096    0.945938    1.051535    1.053492    1.187176    1.194018
 
cpu  time for ANC gen    0.01 s
wall time for ANC gen    0.01 s
................................................................................
.............................. CYCLE    1 ......................................
................................................................................
  q data taken from xtbrestart
  CAMM data taken from xtbrestart
   1    -22.6337928 -0.226338E+02  0.112E-07    4.67       0.0  T
   2    -22.6337928 -0.213163E-13  0.691E-08    4.67  100000.0  T
   3    -22.6337928  0.000000E+00  0.431E-08    4.67  100000.0  T
speedup  1.00
cpu  time for SCC    0.00 s
wall time for SCC    0.00 s
speedup  1.00
cpu  time for grad    0.01 s
wall time for grad    0.01 s
 E :    -22.22079603  G :  0.000122    pred/act E change:  0.000D+00 -0.547D-12
Maxdispl :   0.0036   ||displ|| :   0.0041   Lambda : -0.212D-06
Largest |displ|/coords:  0.0036 (   2)  0.0015 (   1)  0.0012 (   3)
ancopt converged in          1 cycles
total energy gain (kcal):      0.0000
================
 final structure:
================
    18
        -22.22079603
C          -1.14420772243023   -0.35659194096161   -0.04943164107586
C           0.23774632298927   -0.35729293693793   -0.00301033042837
C           0.92164286793775    0.84490188323826    0.03384807037510
C           0.24575187353182    2.05689157264384    0.02515968255899
C          -1.15164598241474    2.05757238875753   -0.02100847897588
C          -1.82784344893059    0.84628238232114   -0.05792450338884
H          -1.68947813614868   -1.28859118072829   -0.07888017047645
H           0.78277509068075   -1.28986392250680    0.00442042722519
H          -2.90848791797656    0.84552230891422   -0.09392658487300
C          -1.91310077682085    3.34820177966482   -0.03168288967099
H          -2.98407117756826    3.16337852711349   -0.05712377380778
H          -1.68425831203524    3.93718936994463    0.85609403363853
H          -1.64420461051208    3.94558880268554   -0.90258373756096
H           2.00227201530022    0.84297062264457    0.06996148239396
C           1.00744550131907    3.34682277481868    0.06420434789114
H           0.78832082433661    3.94908701875139   -0.81721716359333
H           0.72928027102995    3.93131822804492    0.94085146459904
H           2.07802772771180    3.16118696159174    0.09835196516952
 
 Bond Distances (Angstroems)
 ---------------------------
C1-C2=1.3827         C1-C6=1.3836         C1-H7=1.0802         C2-C1=1.3827         C2-C3=1.3836         C2-H8=1.0802         
C3-C2=1.3836         C3-C4=1.3877         C3-H14=1.0812        C4-C3=1.3877         C4-C5=1.3982         C4-C15=1.4985        
C5-C4=1.3982         C5-C6=1.3877         C5-C10=1.4985        C6-C1=1.3836         C6-C5=1.3877         C6-H9=1.0812         
H7-C1=1.0802         H8-C2=1.0802         H9-C6=1.0812         C10-C5=1.4985        C10-H11=1.0871       C10-H12=1.0897       
C10-H13=1.0898       H11-C10=1.0871       H12-C10=1.0897       H13-C10=1.0898       H14-C3=1.0812        C15-C4=1.4985        
C15-H16=1.0898       C15-H17=1.0897       C15-H18=1.0871       H16-C15=1.0898       H17-C15=1.0897       H18-C15=1.0871       
 C  H  Rav=1.0856 sigma=0.0041  Rmin=1.0802  Rmax=1.0898    10
 C  C  Rav=1.4151 sigma=0.0484  Rmin=1.3827  Rmax=1.4985     8
 
 selected bond angles (degree)
 --------------------
C6-C1-C2=119.63                H7-C1-C2=120.33                H7-C1-C6=120.03                C3-C2-C1=119.63                
H8-C2-C1=120.33                H8-C2-C3=120.04                C4-C3-C2=121.19                H14-C3-C2=119.56               
H14-C3-C4=119.24               C5-C4-C3=119.17                C15-C4-C3=120.27               C15-C4-C5=120.56               
C6-C5-C4=119.17                C10-C5-C4=120.56               C10-C5-C6=120.26               C5-C6-C1=121.19                
H9-C6-C1=119.57                H9-C6-C5=119.24                H11-C10-C5=110.75              H12-C10-C5=110.67              
H12-C10-H11=108.53             H13-C10-C5=110.64              H13-C10-H11=108.52             H13-C10-H12=107.64             
 
 selected dihedral angles (degree)
 ---------------------------------
C3-C2-C1-C6=359.97            C3-C2-C1-H7=179.98            H8-C2-C1-C6=179.98            H8-C2-C1-H7=  0.00            
C4-C3-C2-C1=  0.00            C4-C3-C2-H8=179.99            H14-C3-C2-C1=180.01           H14-C3-C2-H8=  0.00           
C5-C4-C3-C2=  0.04            C5-C4-C3-H14=180.03           C15-C4-C3-C2=180.06           C15-C4-C3-H14=  0.05          
C6-C5-C4-C3=359.96            C6-C5-C4-C15=179.93           C10-C5-C4-C3=180.00           C10-C5-C4-C15=359.97          
C5-C6-C1-C2=  0.00            C5-C6-C1-H7=180.01            H9-C6-C1-C2=180.02            H9-C6-C1-H7=  0.00            
C1-C6-C5-C4=  0.00            C1-C6-C5-C10=179.97           H9-C6-C5-C4=180.02            H9-C6-C5-C10=359.97           
H11-C10-C5-C4=180.68          H11-C10-C5-C6=  0.72          H12-C10-C5-C4=301.09          H12-C10-C5-C6=121.14          
H13-C10-C5-C4= 60.31          H13-C10-C5-C6=240.35          
 
             =======================================
             |                                     |
             |        S C C  calculation           |
             |                                     |
             =======================================
 #proc     :            2
 Ncao      :           42
 Nao       :           42
 Nel       :           42
 T(el)     :   300.0
 intcut    :    25.0
 scfconv   :  0.100E-05
   qconv   :  0.100E-03
 intneglect:  0.100E-07
 broydamp  :      0.400
 Nshell    :           26
 iter      E             dE          RMSdq      gap      omega  full diag
   1    -22.6337928 -0.226338E+02  0.117E-08    4.67       0.0  T
   2    -22.6337928  0.355271E-13  0.609E-09    4.67  100000.0  T
   3    -22.6337928 -0.390799E-13  0.461E-09    4.67  100000.0  T
speedup  1.00
cpu  time for SCC    0.00 s
wall time for SCC    0.00 s

          eigenvalues
 #    :           9         10         11         12         13         14         15         16
 occ. :        2.000      2.000      2.000      2.000      2.000      2.000      2.000      2.000
 eps  :       -13.690    -13.586    -13.300    -12.850    -12.762    -12.679    -12.511    -12.334
 #    :          17         18         19         20         21         22         23         24
 occ. :        2.000      2.000      2.000      2.000      2.000      0.000      0.000      0.000
 eps  :       -12.294    -11.295    -11.269    -10.631    -10.424     -5.753     -5.745     -2.279
 #    :          25         26         27         28         29         30         31         32
 occ. :        0.000      0.000      0.000      0.000      0.000      0.000      0.000      0.000
 eps  :         2.953      3.114      3.902      4.084      4.356      5.267      5.322      5.324
 

   #   Z            q   n(s)   n(p)   n(d)      C6AA      α(0)    relVol
   1   6 C     -0.036  1.078  2.958  0.000    28.913     8.826     0.714
   2   6 C     -0.036  1.078  2.958  0.000    28.913     8.826     0.714
   3   6 C     -0.041  1.081  2.961  0.000    29.021     8.845     0.716
   4   6 C      0.007  1.082  2.911  0.000    27.796     8.654     0.700
   5   6 C      0.007  1.082  2.911  0.000    27.796     8.654     0.700
   6   6 C     -0.041  1.081  2.961  0.000    29.021     8.845     0.716
   7   1 H      0.025  0.975  0.000  0.000     2.648     2.545     0.503
   8   1 H      0.025  0.975  0.000  0.000     2.648     2.545     0.503
   9   1 H      0.026  0.974  0.000  0.000     2.641     2.541     0.503
  10   6 C     -0.106  1.035  3.072  0.000    22.653     6.794     0.550
  11   1 H      0.038  0.962  0.000  0.000     2.465     2.455     0.486
  12   1 H      0.043  0.957  0.000  0.000     2.398     2.422     0.479
  13   1 H      0.043  0.957  0.000  0.000     2.398     2.422     0.479
  14   1 H      0.026  0.974  0.000  0.000     2.641     2.541     0.503
  15   6 C     -0.106  1.035  3.072  0.000    22.653     6.794     0.550
  16   1 H      0.043  0.957  0.000  0.000     2.398     2.421     0.479
  17   1 H      0.043  0.957  0.000  0.000     2.399     2.422     0.479
  18   1 H      0.038  0.962  0.000  0.000     2.465     2.455     0.486

 Mol. C6AA /au*bohr^6 :       3291.923277
 Mol. C8AA /au*bohr^6 :      77547.321207
 Mol. a(0) /au        :         91.003719

 
 Wiberg/Mayer (AO) data. WBOs > 0.1 written file <wbo>
 largest (>0.05) Wiberg bond orders for each atom
           total WBO             WBO to atom ...
     1  C   3.993    C    2 1.440    C    6 1.438    H    7 0.972    C    4 0.108
     2  C   3.993    C    1 1.440    C    3 1.438    H    8 0.972    C    5 0.108
     3  C   3.992    C    2 1.438    C    4 1.422    H   14 0.969    C    6 0.107
     4  C   3.989    C    3 1.422    C    5 1.376    C   15 1.028    C    1 0.108
     5  C   3.989    C    6 1.422    C    4 1.376    C   10 1.028    C    2 0.108
     6  C   3.992    C    1 1.438    C    5 1.422    H    9 0.969    C    3 0.107
     7  H   0.999    C    1 0.972
     8  H   0.999    C    2 0.972
     9  H   0.999    C    6 0.969
    10  C   3.997    C    5 1.028    H   11 0.986    H   12 0.971    H   13 0.971
    11  H   0.998    C   10 0.986
    12  H   0.998    C   10 0.971
    13  H   0.998    C   10 0.971
    14  H   0.999    C    3 0.969
    15  C   3.997    C    4 1.028    H   18 0.986    H   16 0.971    H   17 0.971
    16  H   0.998    C   15 0.971
    17  H   0.998    C   15 0.971
    18  H   0.998    C   15 0.986
 
molecular dipole:
                 x           y           z       tot (Debye)
 q only:        0.000       0.336       0.003
   full:        0.000       0.364       0.003       0.926
molecular quadrupole (traceless):
                xx          xy          yy          xz          yz          zz
 q only:       -0.578      -0.432       3.114       0.061       0.040      -2.535
  q+dip:        1.325      -0.470       4.681       0.243       0.093      -6.007
   full:        0.003      -0.469       3.702       0.122       0.055      -3.705
 SCC converged in            3  cycles
 
SCC energy    :     -22.6337928
rep           :       0.4129473
ES            :       0.0029875
AES           :       0.0048694
AXC           :       0.0145411
disp          :      -0.0136137
XB            :       0.0000000
fix           :       0.0000000
total E       :     -22.2207960
atomizationE  :       5.3029393     3327.65
(atE without considerung molecular charge,
 total energy contains solvation terms)
H-L gap (eV)  :          4.6718
 !!!!!!!!!!!!!!!!!!!!!!!!!!!!!!!!!!!
 ! Note: the input coordinates are !
 ! NOT overwritten. The optimized  !
 ! ones are on file <xtbopt.coord> !
 ! (or on <xtbopt.xyz> if it was a !
 ! xyz file)                       !
 !!!!!!!!!!!!!!!!!!!!!!!!!!!!!!!!!!!
 
Molecule has the following symmetry elements: (C2) 2*(sigma) 
It seems to be the C2v point group
c2v symmetry found (for desy threshold:  0.10E+00) used in thermo
  q data taken from xtbrestart
  CAMM data taken from xtbrestart
 
             =======================================
             |                                     |
             |         Numerical Hessian           |
             |                                     |
             =======================================
step length          :   0.00500
SCC accuracy         :   0.30000
Hessian scale factor :   1.00000
frozen atoms in %    :   0.00000    0
RMS gradient         :   0.00012
estimated CPU  time      0.03 min
estimated wall time      0.03 min
 
 writing file <hessian>.
 
 projected vibrational frequencies (cm-1)
eig.   :       -0.00    -0.00    -0.00    -0.00    -0.00     0.00
eig.   :      118.61   158.25   172.36   249.14   302.84   401.70
eig.   :      409.36   484.65   486.60   562.42   659.75   766.87
eig.   :      778.84   823.07   881.68   913.04   926.96  1006.37
eig.   :     1006.79  1023.85  1035.15  1106.13  1131.36  1185.43
eig.   :     1207.25  1269.18  1274.64  1324.54  1402.59  1410.20
eig.   :     1440.49  1477.14  1486.02  1489.77  1491.33  1494.70
eig.   :     1588.46  1610.07  2996.76  2998.56  3009.12  3014.60
eig.   :     3042.99  3044.16  3065.01  3065.93  3076.96  3088.67
 reduced masses (amu)
   1:  9.68   2: 10.69   3:  9.60   4: 10.61   5: 10.84   6: 10.28   7:  1.30   8:  8.81
   9:  1.98  10:  8.12  11:  8.40  12:  8.68  13:  8.79  14:  9.27  15: 10.52  16: 11.02
  17: 10.44  18:  2.69  19: 10.08  20: 10.55  21:  3.40  22:  3.97  23:  3.05  24:  5.12
  25:  3.87  26:  4.41  27:  4.91  28:  6.31  29:  6.72  30:  1.30  31:  6.70  32:  8.62
  33:  3.60  34: 11.58  35:  3.27  36:  3.10  37:  8.41  38:  1.58  39:  2.67  40:  9.40
  41:  1.57  42:  2.12  43: 11.48  44: 11.43  45:  1.93  46:  1.94  47:  1.58  48:  1.50
  49:  1.69  50:  1.63  51:  1.76  52:  1.80  53:  1.84  54:  1.91
 IR intensities (amu)
   1:  0.08   2:  0.10   3:  0.06   4:  0.15   5:  0.10   6:  0.06   7:  0.00   8:  0.01
   9:  0.02  10:  0.06  11:  0.03  12:  0.02  13:  0.01  14:  0.00  15:  0.02  16:  0.05
  17:  0.00  18:  0.18  19:  0.17  20:  0.06  21:  0.00  22:  0.02  23:  0.00  24:  0.05
  25:  0.17  26:  0.12  27:  0.00  28:  0.06  29:  0.12  30:  0.02  31:  0.19  32:  0.40
  33:  0.09  34:  0.02  35:  0.09  36:  0.21  37:  0.19  38:  0.00  39:  0.11  40:  0.46
  41:  0.08  42:  0.06  43:  0.16  44:  0.23  45:  0.26  46:  0.02  47:  0.05  48:  0.21
  49:  0.02  50:  0.22  51:  0.25  52:  0.08  53:  0.34  54:  0.31
 output can be read by thermo (or use thermo option).
 writing <g98.out> molden fake output.
 recommended (thermochemical) frequency scaling factor: 1.0
                    ==================
                    thermo calculation
                    ==================
Nvib :   48 Nimag : 0  symmetry :  c2v  rot number :  2  scale factor : 1.00 sthr :  50.
omega=118.61     Gvib=    -0.931     Grot=    -0.801     Gused=    -0.927
omega=158.25     Gvib=    -0.766     Grot=    -0.715     Gused=    -0.766
omega=172.36     Gvib=    -0.718     Grot=    -0.690     Gused=    -0.718
omega=249.14     Gvib=    -0.518     Grot=    -0.581     Gused=    -0.518
 
   temp. (K)  partition function   enthalpy   heat capacity  entropy
                                   cal/mol     cal/K/mol   cal/K/mol   J/K/mol
 298.15  VIB   31.0                 3098.660     23.752     17.200
         ROT  0.143E+06              888.752      2.981     26.565
         INT  0.441E+07             3987.412     26.733     43.765
         TR   0.106E+28             1481.254      4.968     39.878
         TOT                        5468.6664    31.7011    83.6432   349.9619
                     Eh         kcal/mol          kJ/mol 
ZPVE            0.152547         95.7246         400.510    
H(0)-H(T)+PV    0.871487E-02     5.46867         22.8808    
H(T)            0.161262         101.193         423.391    
T*S             0.397416E-01     24.9382         104.341    
G(T)            0.121520         76.2551         319.050    
    -22.09927587  <=== TOTAL FREE ENERGY in Eh incl. el.,ZPVE,RRHO,solv. parts
 
Eat (element increment corrected) /kcal :  2547.292
        -557.959  <=== HOF(298)/kcal, to be compared to exptl. data
 
 normal mode %tage of torsion character
   1:  0.00   2:  0.00   3:  0.00   4:  0.00   5:  0.00   6:  0.00   7:  1.00   8:  1.00
   9:  1.00  10:  1.00  11:  1.00  12:  1.00  13:  1.00  14:  1.00  15:  1.00  16:  1.00
  17:  1.00  18:  1.00  19:  1.00  20:  1.00  21:  1.00  22:  1.00  23:  1.00  24:  1.00
  25:  1.00  26:  1.00  27:  1.00  28:  1.00  29:  1.00  30:  1.00  31:  1.00  32:  1.00
  33:  1.00  34:  1.00  35:  1.00  36:  1.00  37:  1.00  38:  1.00  39:  1.00  40:  1.00
  41:  1.00  42:  1.00  43:  1.00  44:  1.00  45:  1.00  46:  1.00  47:  1.00  48:  1.00
  49:  1.00  50:  1.00  51:  1.00  52:  1.00  53:  1.00  54:  1.00
 recommended # of modes for mode following           4
 
speedup  0.99
cpu  time for all    1.38 s
wall time for all    1.40 s
