 Entering Gaussian System
 *********************************************
 Gaussian 98:
 frequency output generated by the xtb code
 *********************************************
                         Standard orientation:
 --------------------------------------------------------------------
  Center     Atomic     Atomic              Coordinates (Angstroms)
  Number     Number      Type              X           Y           Z
 --------------------------------------------------------------------
    1          6             0       -1.144210   -0.356586   -0.049427
    2          6             0        0.237744   -0.357294   -0.003011
    3          6             0        0.921647    0.844897    0.033843
    4          6             0        0.245763    2.056890    0.025155
    5          6             0       -1.151635    2.057578   -0.021008
    6          6             0       -1.827839    0.846292   -0.057920
    7          1             0       -1.689485   -1.288582   -0.078872
    8          1             0        0.782768   -1.289868    0.004420
    9          1             0       -2.908484    0.845537   -0.093918
   10          6             0       -1.913083    3.348212   -0.031682
   11          1             0       -2.984055    3.163394   -0.057119
   12          1             0       -1.684235    3.937200    0.856093
   13          1             0       -1.644187    3.945596   -0.902585
   14          1             0        2.002277    0.842960    0.069953
   15          6             0        1.007463    3.346818    0.064195
   16          1             0        0.788339    3.949081   -0.817227
   17          1             0        0.729304    3.931316    0.940842
   18          1             0        2.078045    3.161176    0.098339
 --------------------------------------------------------------------
     1 basis functions        1 primitive gaussians
     1 alpha electrons        1 beta electrons
 
 Harmonic frequencies (cm**-1), IR intensities (KM/Mole),
 Raman scattering activities (A**4/amu), Raman depolarization ratios,
 reduced masses (AMU), force constants (mDyne/A) and normal coordinates:
                      1                      2                      3
                        a                      a                      a 
 Frequencies --   118.6075               158.2528               172.3562
 Red. masses --     1.2954                 8.8131                 1.9758
 Frc consts  --     0.0000                 0.0000                 0.0000
 IR Inten    --     0.0022                 0.0053                 0.0239
 Raman Activ --     0.0000                 0.0000                 0.0000
 Depolar     --     0.0000                 0.0000                 0.0000
 Atom AN      X      Y      Z        X      Y      Z        X      Y      Z
   1   6    -0.00  -0.00   0.02    -0.01  -0.00   0.28    -0.00  -0.00   0.13
   2   6     0.00   0.00  -0.02     0.01   0.00  -0.28    -0.00  -0.00   0.13
   3   6     0.00   0.00  -0.02     0.01   0.00  -0.34     0.00   0.00  -0.07
   4   6    -0.00  -0.00  -0.01     0.00   0.00  -0.02     0.00   0.00  -0.15
   5   6    -0.00  -0.00   0.00    -0.00  -0.00   0.02     0.00  -0.00  -0.15
   6   6    -0.00  -0.00   0.02    -0.01  -0.00   0.34     0.00  -0.00  -0.07
   7   1    -0.00  -0.00   0.01    -0.01  -0.00   0.16    -0.00  -0.00   0.08
   8   1     0.00   0.00  -0.01     0.01   0.00  -0.16    -0.00  -0.00   0.08
   9   1    -0.00  -0.00   0.01    -0.01  -0.00   0.17     0.00  -0.00  -0.02
  10   6    -0.00  -0.00   0.11     0.01   0.00  -0.40     0.01   0.00   0.04
  11   1     0.01   0.00  -0.35     0.01   0.00  -0.20     0.01   0.00  -0.34
  12   1    -0.29  -0.20   0.24    -0.07   0.05  -0.13    -0.26  -0.21   0.22
  13   1     0.28   0.20   0.26     0.08  -0.05  -0.13     0.26   0.21   0.24
  14   1     0.00   0.00  -0.01     0.01   0.00  -0.17     0.00   0.00  -0.02
  15   6     0.00   0.00  -0.11    -0.01  -0.00   0.40    -0.01   0.00   0.04
  16   1     0.29  -0.20  -0.24     0.07   0.05   0.13    -0.27   0.21   0.22
  17   1    -0.27   0.20  -0.26    -0.08  -0.05   0.13     0.25  -0.22   0.24
  18   1    -0.01  -0.00   0.34    -0.01  -0.00   0.20     0.01   0.01  -0.35
                      4                      5                      6
                        a                      a                      a 
 Frequencies --   249.1372               302.8433               401.6999
 Red. masses --     8.1152                 8.3995                 8.6831
 Frc consts  --     0.0000                 0.0000                 0.0000
 IR Inten    --     0.0552                 0.0284                 0.0172
 Raman Activ --     0.0000                 0.0000                 0.0000
 Depolar     --     0.0000                 0.0000                 0.0000
 Atom AN      X      Y      Z        X      Y      Z        X      Y      Z
   1   6     0.01   0.00  -0.27     0.00   0.04  -0.00    -0.22   0.08  -0.01
   2   6     0.01   0.00  -0.27    -0.00   0.04  -0.00    -0.22  -0.08  -0.01
   3   6    -0.01  -0.00   0.29    -0.07   0.06   0.00     0.10  -0.21  -0.00
   4   6    -0.01  -0.01   0.34     0.01   0.12   0.00     0.36  -0.03   0.01
   5   6    -0.01  -0.01   0.34    -0.01   0.12   0.00     0.36   0.03   0.02
   6   6    -0.01  -0.00   0.29     0.07   0.06   0.01     0.10   0.21   0.00
   7   1     0.01   0.00  -0.20    -0.01   0.02  -0.00    -0.11   0.05  -0.00
   8   1     0.01   0.00  -0.20     0.01   0.02  -0.00    -0.11  -0.05  -0.00
   9   1    -0.00  -0.00   0.10     0.02   0.01   0.00     0.03   0.15   0.00
  10   6     0.02   0.01  -0.23    -0.53  -0.17  -0.02    -0.13  -0.30  -0.01
  11   1     0.01   0.01  -0.26    -0.13  -0.19  -0.02    -0.01  -0.26  -0.01
  12   1    -0.15   0.04  -0.05    -0.24  -0.02  -0.00    -0.15  -0.04  -0.00
  13   1     0.17  -0.04  -0.05    -0.22  -0.01  -0.00    -0.14  -0.05  -0.01
  14   1    -0.00  -0.00   0.10    -0.02   0.01   0.00     0.03  -0.15  -0.00
  15   6    -0.00   0.00  -0.23     0.53  -0.17   0.01    -0.13   0.30  -0.00
  16   1    -0.16  -0.04  -0.06     0.23  -0.01   0.01    -0.14   0.04  -0.00
  17   1     0.16   0.04  -0.04     0.24  -0.02   0.01    -0.14   0.04  -0.01
  18   1     0.01   0.01  -0.26     0.13  -0.19  -0.01    -0.01   0.26   0.00
                      7                      8                      9
                        a                      a                      a 
 Frequencies --   409.3605               484.6498               486.6018
 Red. masses --     8.7899                 9.2745                10.5223
 Frc consts  --     0.0000                 0.0000                 0.0000
 IR Inten    --     0.0068                 0.0043                 0.0175
 Raman Activ --     0.0000                 0.0000                 0.0000
 Depolar     --     0.0000                 0.0000                 0.0000
 Atom AN      X      Y      Z        X      Y      Z        X      Y      Z
   1   6     0.00   0.00  -0.16    -0.01   0.00   0.41    -0.23  -0.24   0.01
   2   6     0.00   0.00  -0.16     0.02  -0.01  -0.41    -0.23   0.24  -0.02
   3   6    -0.01  -0.01   0.40     0.00  -0.01   0.18    -0.15   0.23   0.01
   4   6     0.02   0.00  -0.41    -0.02  -0.02   0.41     0.05   0.30   0.02
   5   6     0.02   0.00  -0.41     0.01   0.02  -0.41     0.05  -0.30  -0.02
   6   6    -0.01  -0.00   0.40     0.01   0.01  -0.18    -0.15  -0.23  -0.02
   7   1     0.00   0.00  -0.05    -0.01   0.00   0.26    -0.00  -0.10   0.01
   8   1     0.00   0.00  -0.05     0.01  -0.00  -0.26    -0.00   0.10  -0.01
   9   1    -0.01  -0.00   0.33     0.00   0.00  -0.07    -0.04   0.01  -0.00
  10   6    -0.00  -0.00   0.03    -0.01   0.01   0.04     0.25  -0.30   0.01
  11   1    -0.00  -0.00   0.08    -0.00  -0.00   0.09     0.06  -0.00   0.01
  12   1     0.06  -0.09   0.05     0.08  -0.10   0.06     0.13  -0.11   0.00
  13   1    -0.07   0.09   0.05    -0.09   0.11   0.06     0.12  -0.10   0.01
  14   1    -0.01  -0.01   0.33    -0.00  -0.00   0.07    -0.04  -0.01   0.00
  15   6    -0.00   0.00   0.03    -0.01  -0.01  -0.04     0.25   0.30   0.01
  16   1     0.06   0.09   0.05    -0.09  -0.11  -0.06     0.12   0.10   0.00
  17   1    -0.07  -0.09   0.05     0.08   0.10  -0.06     0.13   0.11   0.00
  18   1    -0.00   0.00   0.08     0.00   0.00  -0.09     0.06   0.00  -0.00
                     10                     11                     12
                        a                      a                      a 
 Frequencies --   562.4215               659.7468               766.8667
 Red. masses --    11.0151                10.4366                 2.6876
 Frc consts  --     0.0000                 0.0000                 0.0000
 IR Inten    --     0.0481                 0.0028                 0.1785
 Raman Activ --     0.0000                 0.0000                 0.0000
 Depolar     --     0.0000                 0.0000                 0.0000
 Atom AN      X      Y      Z        X      Y      Z        X      Y      Z
   1   6    -0.02   0.40   0.00     0.01   0.00  -0.33    -0.01  -0.00   0.19
   2   6     0.02   0.40   0.00    -0.01  -0.00   0.33    -0.01  -0.00   0.19
   3   6     0.41   0.10   0.02     0.01   0.00  -0.33    -0.00  -0.00   0.17
   4   6     0.01  -0.19  -0.00    -0.01  -0.01   0.46     0.00   0.00  -0.10
   5   6    -0.01  -0.19  -0.00     0.02   0.01  -0.46     0.00   0.00  -0.10
   6   6    -0.41   0.11  -0.01    -0.01  -0.00   0.33    -0.01  -0.00   0.17
   7   1     0.09   0.06   0.00     0.00   0.00  -0.10     0.02   0.01  -0.50
   8   1    -0.09   0.06  -0.00    -0.00  -0.00   0.10     0.02   0.01  -0.50
   9   1    -0.11   0.04  -0.00    -0.00  -0.00   0.14     0.01   0.00  -0.39
  10   6     0.06  -0.27  -0.00     0.00   0.00  -0.06     0.00   0.00  -0.04
  11   1     0.02  -0.09  -0.00    -0.00  -0.00   0.05    -0.00  -0.00   0.05
  12   1     0.01  -0.07  -0.00     0.07  -0.11   0.04     0.05  -0.08   0.03
  13   1     0.01  -0.07  -0.00    -0.08   0.11   0.04    -0.05   0.08   0.03
  14   1     0.11   0.04   0.00     0.00   0.00  -0.14     0.01   0.00  -0.39
  15   6    -0.06  -0.27  -0.01    -0.00  -0.00   0.06     0.00   0.00  -0.04
  16   1    -0.01  -0.07  -0.00    -0.07  -0.11  -0.04     0.05   0.08   0.03
  17   1    -0.01  -0.07  -0.00     0.07   0.11  -0.04    -0.05  -0.08   0.03
  18   1    -0.02  -0.09  -0.00     0.00   0.00  -0.05    -0.00   0.00   0.05
                     13                     14                     15
                        a                      a                      a 
 Frequencies --   778.8437               823.0667               881.6804
 Red. masses --    10.0843                10.5510                 3.3971
 Frc consts  --     0.0000                 0.0000                 0.0000
 IR Inten    --     0.1673                 0.0551                 0.0010
 Raman Activ --     0.0000                 0.0000                 0.0000
 Depolar     --     0.0000                 0.0000                 0.0000
 Atom AN      X      Y      Z        X      Y      Z        X      Y      Z
   1   6     0.03   0.09   0.00     0.23   0.44   0.01     0.01   0.00  -0.18
   2   6    -0.03   0.09   0.00     0.23  -0.44   0.00    -0.01  -0.00   0.18
   3   6    -0.40   0.20  -0.01    -0.25  -0.14  -0.01    -0.01  -0.00   0.28
   4   6    -0.18   0.09  -0.01    -0.12   0.06  -0.00     0.00  -0.00  -0.01
   5   6     0.18   0.09   0.01    -0.12  -0.06  -0.01    -0.00  -0.00   0.01
   6   6     0.40   0.20   0.02    -0.25   0.14  -0.01     0.01   0.00  -0.28
   7   1    -0.07   0.08  -0.00    -0.01   0.16   0.00    -0.01  -0.00   0.29
   8   1     0.07   0.08   0.00    -0.01  -0.16  -0.00     0.01   0.00  -0.29
   9   1     0.11   0.11   0.00    -0.06  -0.05  -0.00    -0.02  -0.01   0.55
  10   6     0.23  -0.34   0.00     0.11  -0.28   0.00    -0.00  -0.00   0.02
  11   1     0.08  -0.17   0.00     0.02  -0.01   0.00     0.00   0.00  -0.02
  12   1     0.03  -0.08   0.00     0.08  -0.10  -0.00    -0.01   0.02  -0.01
  13   1     0.03  -0.08  -0.00     0.08  -0.10   0.00     0.01  -0.02  -0.01
  14   1    -0.11   0.11  -0.00    -0.06   0.05  -0.00     0.02   0.01  -0.55
  15   6    -0.24  -0.34  -0.01     0.11   0.28   0.01     0.00   0.00  -0.02
  16   1    -0.03  -0.08  -0.00     0.08   0.10   0.00     0.01   0.02   0.01
  17   1    -0.03  -0.08  -0.00     0.08   0.10   0.01    -0.01  -0.02   0.01
  18   1    -0.08  -0.17  -0.00     0.02   0.01   0.00    -0.00  -0.00   0.02
                     16                     17                     18
                        a                      a                      a 
 Frequencies --   913.0358               926.9550              1006.3675
 Red. masses --     3.9685                 3.0509                 5.1172
 Frc consts  --     0.0000                 0.0000                 0.0000
 IR Inten    --     0.0213                 0.0012                 0.0479
 Raman Activ --     0.0000                 0.0000                 0.0000
 Depolar     --     0.0000                 0.0000                 0.0000
 Atom AN      X      Y      Z        X      Y      Z        X      Y      Z
   1   6    -0.01  -0.00   0.23     0.01   0.00  -0.27     0.08   0.01   0.00
   2   6    -0.01  -0.00   0.23    -0.01  -0.00   0.27     0.08  -0.01   0.00
   3   6     0.01   0.00  -0.28     0.00   0.00  -0.13    -0.31   0.08  -0.01
   4   6    -0.00  -0.00   0.02     0.00   0.00  -0.04     0.08   0.02   0.00
   5   6    -0.00  -0.00   0.02    -0.00  -0.00   0.04     0.08  -0.02   0.00
   6   6     0.01   0.00  -0.28    -0.00  -0.00   0.13    -0.31  -0.07  -0.01
   7   1     0.01   0.00  -0.39    -0.02  -0.01   0.55     0.14  -0.07   0.00
   8   1     0.01   0.00  -0.39     0.02   0.01  -0.55     0.14   0.07   0.01
   9   1    -0.02  -0.01   0.45     0.01   0.00  -0.32    -0.09  -0.09  -0.00
  10   6    -0.00  -0.00   0.03    -0.00  -0.00   0.03     0.22   0.15   0.01
  11   1     0.00   0.00  -0.02     0.00   0.00  -0.01     0.12  -0.36  -0.00
  12   1    -0.02   0.04  -0.02    -0.02   0.03  -0.01    -0.22   0.13   0.01
  13   1     0.02  -0.04  -0.01     0.02  -0.03  -0.01    -0.22   0.12  -0.02
  14   1    -0.02  -0.01   0.45    -0.01  -0.00   0.32    -0.09   0.09  -0.00
  15   6    -0.00  -0.00   0.03     0.00   0.00  -0.03     0.22  -0.15   0.00
  16   1    -0.02  -0.04  -0.02     0.02   0.03   0.01    -0.22  -0.13   0.01
  17   1     0.02   0.04  -0.01    -0.02  -0.03   0.01    -0.22  -0.13  -0.03
  18   1     0.00   0.00  -0.02    -0.00  -0.00   0.01     0.12   0.36   0.01
                     19                     20                     21
                        a                      a                      a 
 Frequencies --  1006.7852              1023.8538              1035.1475
 Red. masses --     3.8734                 4.4058                 4.9067
 Frc consts  --     0.0000                 0.0000                 0.0000
 IR Inten    --     0.1693                 0.1187                 0.0044
 Raman Activ --     0.0000                 0.0000                 0.0000
 Depolar     --     0.0000                 0.0000                 0.0000
 Atom AN      X      Y      Z        X      Y      Z        X      Y      Z
   1   6     0.07   0.07   0.00     0.00   0.00  -0.01     0.00   0.00  -0.03
   2   6    -0.07   0.07  -0.00     0.00   0.00  -0.01    -0.00  -0.00   0.03
   3   6    -0.11   0.06  -0.00     0.00   0.00  -0.07    -0.00  -0.00   0.02
   4   6     0.11  -0.03   0.00    -0.01  -0.00   0.24     0.01   0.00  -0.29
   5   6    -0.11  -0.03  -0.00    -0.01  -0.00   0.24    -0.01  -0.00   0.29
   6   6     0.11   0.06   0.00     0.00   0.00  -0.07     0.00   0.00  -0.02
   7   1    -0.01   0.04   0.00    -0.00  -0.00   0.03    -0.00  -0.00   0.04
   8   1     0.00   0.04   0.00    -0.00  -0.00   0.03     0.00   0.00  -0.04
   9   1     0.03   0.03   0.00    -0.00  -0.00   0.10    -0.00  -0.00   0.01
  10   6    -0.25  -0.17  -0.01     0.01   0.00  -0.30     0.01   0.00  -0.30
  11   1    -0.14   0.44   0.00    -0.00  -0.01   0.17    -0.00  -0.01   0.16
  12   1     0.25  -0.14  -0.02     0.17  -0.33   0.11     0.16  -0.33   0.11
  13   1     0.24  -0.13   0.03    -0.18   0.34   0.10    -0.18   0.33   0.10
  14   1    -0.03   0.03  -0.00    -0.00  -0.00   0.10    -0.00   0.00  -0.01
  15   6     0.25  -0.17   0.01     0.01   0.00  -0.30    -0.01  -0.00   0.31
  16   1    -0.24  -0.13   0.01     0.17   0.33   0.12    -0.17  -0.33  -0.11
  17   1    -0.24  -0.14  -0.03    -0.18  -0.33   0.10     0.17   0.33  -0.09
  18   1     0.14   0.43   0.01    -0.01  -0.00   0.17     0.01   0.00  -0.16
                     22                     23                     24
                        a                      a                      a 
 Frequencies --  1106.1323              1131.3638              1185.4283
 Red. masses --     6.3077                 6.7248                 1.2982
 Frc consts  --     0.0000                 0.0000                 0.0000
 IR Inten    --     0.0608                 0.1183                 0.0174
 Raman Activ --     0.0000                 0.0000                 0.0000
 Depolar     --     0.0000                 0.0000                 0.0000
 Atom AN      X      Y      Z        X      Y      Z        X      Y      Z
   1   6     0.29   0.28   0.01     0.10   0.03   0.00     0.05  -0.04   0.00
   2   6    -0.29   0.28  -0.01     0.10  -0.03   0.00    -0.05  -0.04  -0.00
   3   6    -0.21  -0.17  -0.01    -0.27  -0.05  -0.01    -0.03  -0.00  -0.00
   4   6     0.04  -0.05   0.00     0.32   0.14   0.01    -0.08   0.03  -0.00
   5   6    -0.04  -0.05  -0.00     0.32  -0.14   0.01     0.08   0.03   0.00
   6   6     0.21  -0.17   0.01    -0.27   0.05  -0.01     0.03  -0.00   0.00
   7   1     0.26  -0.02   0.01     0.28  -0.14   0.01     0.53  -0.31   0.01
   8   1    -0.26  -0.01  -0.01     0.28   0.14   0.01    -0.53  -0.31  -0.02
   9   1     0.06  -0.43  -0.00    -0.07   0.26   0.00     0.01   0.33   0.00
  10   6     0.01   0.06   0.00    -0.21   0.08  -0.01    -0.01  -0.00  -0.00
  11   1     0.01  -0.04  -0.00    -0.09   0.24   0.00    -0.01   0.02   0.00
  12   1    -0.02   0.02   0.00     0.05   0.01  -0.02    -0.00   0.00  -0.00
  13   1    -0.02   0.02  -0.00     0.05   0.01   0.02    -0.00   0.00   0.00
  14   1    -0.06  -0.43  -0.01    -0.07  -0.26  -0.01    -0.01   0.33   0.00
  15   6    -0.01   0.06   0.00    -0.21  -0.08  -0.01     0.01  -0.00   0.00
  16   1     0.02   0.02  -0.00     0.05  -0.01  -0.02    -0.00   0.00   0.00
  17   1     0.02   0.02   0.00     0.05  -0.01   0.02     0.00   0.00  -0.00
  18   1    -0.01  -0.04  -0.00    -0.09  -0.24  -0.01     0.01   0.02   0.00
                     25                     26                     27
                        a                      a                      a 
 Frequencies --  1207.2529              1269.1801              1274.6374
 Red. masses --     6.6980                 8.6210                 3.6005
 Frc consts  --     0.0000                 0.0000                 0.0000
 IR Inten    --     0.1940                 0.3958                 0.0866
 Raman Activ --     0.0000                 0.0000                 0.0000
 Depolar     --     0.0000                 0.0000                 0.0000
 Atom AN      X      Y      Z        X      Y      Z        X      Y      Z
   1   6     0.01   0.13   0.00     0.04   0.21   0.00    -0.14   0.00  -0.00
   2   6     0.01  -0.13  -0.00    -0.04   0.21   0.00    -0.14  -0.00  -0.00
   3   6    -0.03   0.21   0.00    -0.18  -0.17  -0.01    -0.06  -0.11  -0.00
   4   6     0.25   0.31   0.01    -0.16  -0.42  -0.01     0.18  -0.20   0.00
   5   6     0.25  -0.31   0.00     0.16  -0.42   0.00     0.18   0.20   0.01
   6   6    -0.03  -0.21  -0.00     0.18  -0.17   0.00    -0.06   0.11  -0.00
   7   1    -0.33   0.23  -0.01    -0.11   0.14  -0.00     0.19  -0.13   0.00
   8   1    -0.33  -0.23  -0.01     0.11   0.14   0.01     0.19   0.13   0.01
   9   1    -0.00  -0.25  -0.00     0.06   0.31   0.01    -0.02  -0.55  -0.01
  10   6    -0.11   0.17  -0.00    -0.07   0.19  -0.00    -0.08  -0.06  -0.00
  11   1    -0.04   0.11   0.00    -0.03   0.07  -0.00    -0.02   0.04  -0.00
  12   1    -0.03   0.06  -0.01    -0.08   0.06   0.00     0.10  -0.04  -0.01
  13   1    -0.03   0.06   0.01    -0.08   0.06  -0.01     0.09  -0.04   0.02
  14   1    -0.00   0.25   0.00    -0.06   0.31   0.00    -0.02   0.55   0.01
  15   6    -0.11  -0.16  -0.01     0.07   0.19   0.00    -0.08   0.06  -0.00
  16   1    -0.03  -0.06  -0.01     0.08   0.06  -0.00     0.09   0.04  -0.01
  17   1    -0.03  -0.06   0.00     0.08   0.06   0.01     0.09   0.04   0.02
  18   1    -0.04  -0.11  -0.00     0.03   0.07   0.00    -0.02  -0.04  -0.00
                     28                     29                     30
                        a                      a                      a 
 Frequencies --  1324.5445              1402.5856              1410.2033
 Red. masses --    11.5801                 3.2687                 3.0961
 Frc consts  --     0.0000                 0.0000                 0.0000
 IR Inten    --     0.0250                 0.0864                 0.2058
 Raman Activ --     0.0000                 0.0000                 0.0000
 Depolar     --     0.0000                 0.0000                 0.0000
 Atom AN      X      Y      Z        X      Y      Z        X      Y      Z
   1   6    -0.35   0.18  -0.01    -0.03   0.02  -0.00     0.03  -0.02   0.00
   2   6     0.35   0.18   0.01    -0.03  -0.02  -0.00    -0.03  -0.02  -0.00
   3   6     0.02  -0.37  -0.00     0.04  -0.02   0.00     0.00   0.02   0.00
   4   6    -0.35   0.25  -0.01    -0.04  -0.02  -0.00     0.02   0.01   0.00
   5   6     0.35   0.25   0.01    -0.04   0.02  -0.00    -0.02   0.01  -0.00
   6   6    -0.02  -0.37  -0.01     0.04   0.02   0.00    -0.00   0.02   0.00
   7   1     0.00  -0.01  -0.00     0.04  -0.02   0.00     0.00  -0.00   0.00
   8   1    -0.00  -0.01  -0.00     0.04   0.02   0.00    -0.00  -0.00  -0.00
   9   1    -0.01  -0.06  -0.00     0.01  -0.04  -0.00     0.00  -0.03  -0.00
  10   6    -0.05  -0.06  -0.00     0.14  -0.28   0.00     0.13  -0.28   0.00
  11   1    -0.02   0.06   0.00    -0.05   0.33  -0.00    -0.05   0.32  -0.00
  12   1     0.07   0.01  -0.03    -0.18   0.29  -0.16    -0.18   0.30  -0.17
  13   1     0.07   0.01   0.03    -0.19   0.29   0.15    -0.19   0.30   0.16
  14   1     0.01  -0.06  -0.00     0.01   0.04   0.00    -0.00  -0.03  -0.00
  15   6     0.05  -0.06   0.00     0.14   0.28   0.01    -0.13  -0.28  -0.01
  16   1    -0.07   0.01   0.03    -0.18  -0.29  -0.16     0.18   0.30   0.17
  17   1    -0.07   0.01  -0.03    -0.19  -0.29   0.15     0.19   0.30  -0.15
  18   1     0.02   0.06   0.00    -0.05  -0.33  -0.01     0.05   0.32   0.00
                     31                     32                     33
                        a                      a                      a 
 Frequencies --  1440.4865              1477.1448              1486.0164
 Red. masses --     8.4083                 1.5785                 2.6666
 Frc consts  --     0.0000                 0.0000                 0.0000
 IR Inten    --     0.1892                 0.0014                 0.1094
 Raman Activ --     0.0000                 0.0000                 0.0000
 Depolar     --     0.0000                 0.0000                 0.0000
 Atom AN      X      Y      Z        X      Y      Z        X      Y      Z
   1   6    -0.23   0.30  -0.00    -0.00  -0.00   0.00    -0.09   0.14  -0.00
   2   6    -0.23  -0.30  -0.01     0.00  -0.00  -0.00    -0.09  -0.14  -0.00
   3   6     0.24  -0.03   0.01     0.00   0.00   0.00     0.09   0.07   0.00
   4   6    -0.11   0.32  -0.00    -0.01  -0.00   0.03    -0.05   0.11   0.00
   5   6    -0.11  -0.32  -0.01     0.00  -0.00  -0.03    -0.05  -0.12  -0.00
   6   6     0.24   0.03   0.01     0.00   0.00  -0.00     0.09  -0.07   0.00
   7   1     0.29  -0.12   0.01     0.00  -0.00  -0.00     0.09  -0.03   0.00
   8   1     0.29   0.12   0.01    -0.00  -0.00   0.00     0.09   0.03   0.00
   9   1     0.07  -0.05   0.00    -0.00  -0.00   0.00     0.03   0.04   0.00
  10   6     0.06   0.11   0.00     0.00   0.00  -0.16    -0.14   0.00  -0.00
  11   1     0.00   0.04   0.00    -0.01  -0.00   0.51     0.04  -0.29  -0.01
  12   1    -0.12  -0.07   0.09    -0.32   0.04   0.05     0.26   0.23  -0.22
  13   1    -0.12  -0.07  -0.10     0.32  -0.03   0.06     0.24   0.23   0.23
  14   1     0.07   0.05   0.00     0.00  -0.00  -0.00     0.03  -0.04   0.00
  15   6     0.06  -0.11   0.00    -0.00  -0.00   0.16    -0.14  -0.00  -0.00
  16   1    -0.12   0.07   0.09     0.32   0.04  -0.04     0.26  -0.23  -0.22
  17   1    -0.12   0.07  -0.10    -0.32  -0.03  -0.07     0.23  -0.23   0.23
  18   1     0.00  -0.04  -0.00     0.02   0.00  -0.51     0.04   0.29  -0.01
                     34                     35                     36
                        a                      a                      a 
 Frequencies --  1489.7715              1491.3336              1494.7010
 Red. masses --     9.4025                 1.5715                 2.1238
 Frc consts  --     0.0000                 0.0000                 0.0000
 IR Inten    --     0.4581                 0.0765                 0.0604
 Raman Activ --     0.0000                 0.0000                 0.0000
 Depolar     --     0.0000                 0.0000                 0.0000
 Atom AN      X      Y      Z        X      Y      Z        X      Y      Z
   1   6    -0.23  -0.08  -0.01     0.01   0.00   0.00    -0.04   0.03  -0.00
   2   6     0.23  -0.09   0.01    -0.02  -0.00   0.00     0.04   0.03   0.00
   3   6    -0.03   0.36   0.00     0.00  -0.01   0.00    -0.01  -0.07  -0.00
   4   6    -0.34  -0.26  -0.02     0.01   0.01  -0.02     0.06   0.09   0.00
   5   6     0.34  -0.26   0.01    -0.01   0.00  -0.02    -0.06   0.09  -0.00
   6   6     0.03   0.36   0.01    -0.00  -0.01   0.00     0.01  -0.07  -0.00
   7   1     0.08  -0.11   0.00    -0.00   0.00  -0.00    -0.00   0.00  -0.00
   8   1    -0.08  -0.11  -0.00     0.01   0.01  -0.00     0.00   0.00  -0.00
   9   1     0.01  -0.28  -0.00    -0.00   0.01  -0.00     0.00   0.01   0.00
  10   6    -0.06   0.08  -0.01    -0.01  -0.00  -0.16     0.18  -0.00  -0.01
  11   1    -0.03   0.11   0.02    -0.01  -0.03   0.50    -0.03   0.28   0.04
  12   1    -0.05  -0.02   0.03    -0.30   0.06   0.03    -0.31  -0.23   0.23
  13   1    -0.03  -0.02  -0.03     0.35  -0.01   0.09    -0.25  -0.23  -0.23
  14   1    -0.01  -0.28  -0.00     0.00   0.01  -0.00    -0.00   0.01   0.00
  15   6     0.06   0.08  -0.01     0.01  -0.00  -0.16    -0.18  -0.00  -0.01
  16   1     0.02  -0.03  -0.03    -0.34  -0.02   0.06     0.27  -0.23  -0.22
  17   1     0.06  -0.02   0.04     0.31   0.05   0.05     0.29  -0.23   0.24
  18   1     0.03   0.11   0.03    -0.02  -0.02   0.50     0.03   0.28   0.03
                     37                     38                     39
                        a                      a                      a 
 Frequencies --  1588.4646              1610.0730              2996.7569
 Red. masses --    11.4762                11.4259                 1.9302
 Frc consts  --     0.0000                 0.0000                 0.0000
 IR Inten    --     0.1563                 0.2273                 0.2624
 Raman Activ --     0.0000                 0.0000                 0.0000
 Depolar     --     0.0000                 0.0000                 0.0000
 Atom AN      X      Y      Z        X      Y      Z        X      Y      Z
   1   6     0.47  -0.13   0.01     0.13  -0.27   0.00     0.00  -0.00  -0.00
   2   6    -0.47  -0.13  -0.02     0.13   0.27   0.01     0.00  -0.00  -0.00
   3   6     0.21  -0.01   0.01    -0.01  -0.51  -0.01    -0.00  -0.00   0.00
   4   6    -0.42   0.12  -0.01    -0.09   0.34   0.00    -0.00  -0.00   0.00
   5   6     0.42   0.11   0.02    -0.09  -0.34  -0.01    -0.00  -0.00   0.00
   6   6    -0.21  -0.01  -0.01    -0.01   0.51   0.01     0.00   0.00   0.00
   7   1    -0.08   0.08  -0.00    -0.07  -0.01  -0.00     0.00   0.00   0.00
   8   1     0.08   0.08   0.00    -0.07   0.01  -0.00    -0.00   0.00   0.00
   9   1    -0.05   0.02  -0.00    -0.00  -0.12  -0.00    -0.00   0.00   0.00
  10   6    -0.03  -0.00  -0.00    -0.01   0.04   0.00    -0.01  -0.01   0.19
  11   1    -0.02   0.07  -0.00     0.01  -0.05  -0.00     0.00  -0.00   0.03
  12   1     0.00  -0.04   0.02     0.01   0.04  -0.03    -0.10  -0.24  -0.34
  13   1     0.00  -0.03  -0.02     0.01   0.04   0.03     0.13   0.26  -0.36
  14   1     0.05   0.02   0.00    -0.00   0.12   0.00    -0.00   0.00   0.00
  15   6     0.03  -0.00   0.00    -0.01  -0.04  -0.00    -0.01  -0.00   0.22
  16   1    -0.00  -0.03  -0.02     0.01  -0.04  -0.03    -0.11   0.29  -0.40
  17   1    -0.00  -0.03   0.02     0.01  -0.04   0.03     0.14  -0.28  -0.39
  18   1     0.02   0.07   0.00     0.01   0.05   0.00    -0.00  -0.00   0.03
                     40                     41                     42
                        a                      a                      a 
 Frequencies --  2998.5583              3009.1247              3014.5960
 Red. masses --     1.9356                 1.5760                 1.5002
 Frc consts  --     0.0000                 0.0000                 0.0000
 IR Inten    --     0.0158                 0.0509                 0.2051
 Raman Activ --     0.0000                 0.0000                 0.0000
 Depolar     --     0.0000                 0.0000                 0.0000
 Atom AN      X      Y      Z        X      Y      Z        X      Y      Z
   1   6     0.00  -0.00  -0.00    -0.00   0.00  -0.00     0.00  -0.00   0.00
   2   6    -0.00  -0.00   0.00    -0.00  -0.00  -0.00    -0.00  -0.00  -0.00
   3   6     0.00  -0.00  -0.00    -0.00   0.00  -0.00    -0.00   0.00  -0.00
   4   6     0.00   0.00  -0.00     0.00  -0.01  -0.00    -0.00  -0.01  -0.00
   5   6    -0.00  -0.00   0.00     0.00   0.01   0.00     0.00  -0.01  -0.00
   6   6     0.00   0.00   0.00    -0.00  -0.00  -0.00     0.00   0.00   0.00
   7   1     0.00   0.00  -0.00     0.00   0.00  -0.00     0.00   0.00   0.00
   8   1    -0.00   0.00   0.00     0.00  -0.00   0.00    -0.00   0.00  -0.00
   9   1    -0.00   0.00   0.00     0.01  -0.00   0.00    -0.01   0.00  -0.00
  10   6    -0.01  -0.01   0.22     0.08   0.13   0.01    -0.07  -0.14  -0.01
  11   1     0.00  -0.00   0.03    -0.07   0.00  -0.00     0.02  -0.01  -0.00
  12   1    -0.11  -0.27  -0.38    -0.10  -0.25  -0.42     0.10   0.26   0.43
  13   1     0.14   0.30  -0.42    -0.11  -0.23   0.37     0.11   0.24  -0.40
  14   1    -0.00   0.00  -0.00     0.01   0.00   0.00     0.01   0.00   0.00
  15   6     0.00   0.01  -0.19     0.08  -0.14  -0.00     0.07  -0.13  -0.00
  16   1     0.10  -0.26   0.36    -0.09   0.25  -0.40    -0.09   0.24  -0.40
  17   1    -0.12   0.24   0.34    -0.13   0.25   0.42    -0.12   0.24   0.40
  18   1     0.00   0.00  -0.03    -0.08  -0.00  -0.00    -0.02  -0.01  -0.00
                     43                     44                     45
                        a                      a                      a 
 Frequencies --  3042.9865              3044.1551              3065.0060
 Red. masses --     1.6890                 1.6330                 1.7642
 Frc consts  --     0.0000                 0.0000                 0.0000
 IR Inten    --     0.0164                 0.2182                 0.2522
 Raman Activ --     0.0000                 0.0000                 0.0000
 Depolar     --     0.0000                 0.0000                 0.0000
 Atom AN      X      Y      Z        X      Y      Z        X      Y      Z
   1   6     0.00   0.00   0.00    -0.00  -0.00  -0.00    -0.05  -0.08  -0.00
   2   6    -0.00   0.00  -0.00    -0.00   0.00  -0.00    -0.04   0.07  -0.00
   3   6     0.02   0.00   0.00     0.02   0.00   0.00     0.15   0.00   0.01
   4   6    -0.01   0.00  -0.00    -0.01   0.00  -0.00     0.00   0.01   0.00
   5   6     0.01   0.00   0.00    -0.00  -0.00  -0.00     0.01  -0.01   0.00
   6   6    -0.02   0.00  -0.00     0.02  -0.00   0.00     0.17  -0.00   0.01
   7   1    -0.00  -0.01  -0.00     0.01   0.01   0.00     0.18   0.30   0.01
   8   1     0.00  -0.01   0.00     0.01  -0.01   0.00     0.17  -0.29   0.00
   9   1     0.07  -0.00   0.00    -0.07   0.00  -0.00    -0.62  -0.00  -0.02
  10   6     0.17   0.03   0.00    -0.16  -0.02  -0.00     0.02   0.00   0.00
  11   1    -0.68  -0.13  -0.02     0.65   0.13   0.02    -0.07  -0.01  -0.00
  12   1     0.03   0.02   0.02    -0.04  -0.04  -0.05     0.00   0.00  -0.00
  13   1     0.03   0.02  -0.02    -0.04  -0.04   0.05     0.00   0.00  -0.00
  14   1    -0.07  -0.00  -0.00    -0.07  -0.00  -0.00    -0.55   0.00  -0.02
  15   6    -0.17   0.03  -0.01    -0.17   0.02  -0.01     0.02  -0.00   0.00
  16   1    -0.03   0.02  -0.02    -0.04   0.04  -0.05     0.00  -0.00   0.00
  17   1    -0.03   0.02   0.02    -0.04   0.04   0.05     0.00  -0.00  -0.00
  18   1     0.66  -0.13   0.02     0.67  -0.13   0.02    -0.06   0.01  -0.00
                     46                     47                     48
                        a                      a                      a 
 Frequencies --  3065.9326              3076.9604              3088.6654
 Red. masses --     1.7989                 1.8356                 1.9143
 Frc consts  --     0.0000                 0.0000                 0.0000
 IR Inten    --     0.0832                 0.3375                 0.3097
 Raman Activ --     0.0000                 0.0000                 0.0000
 Depolar     --     0.0000                 0.0000                 0.0000
 Atom AN      X      Y      Z        X      Y      Z        X      Y      Z
   1   6    -0.03  -0.05  -0.00    -0.08  -0.14  -0.00     0.10   0.16   0.01
   2   6     0.03  -0.06   0.00    -0.08   0.14  -0.00    -0.10   0.16  -0.00
   3   6    -0.19   0.00  -0.01    -0.10   0.00  -0.00    -0.07  -0.00  -0.00
   4   6    -0.01  -0.00  -0.00    -0.00  -0.00  -0.00    -0.00  -0.00  -0.00
   5   6     0.01  -0.00   0.00    -0.00   0.00   0.00     0.00  -0.00  -0.00
   6   6     0.17   0.00   0.01    -0.10  -0.00  -0.00     0.07  -0.00   0.00
   7   1     0.10   0.18   0.01     0.30   0.51   0.02    -0.32  -0.55  -0.02
   8   1    -0.12   0.21  -0.00     0.30  -0.51   0.00     0.32  -0.55   0.00
   9   1    -0.61  -0.00  -0.02     0.34   0.00   0.01    -0.22   0.00  -0.01
  10   6     0.02   0.00   0.00    -0.01  -0.00  -0.00     0.00   0.00   0.00
  11   1    -0.07  -0.01  -0.00     0.02   0.00   0.00    -0.02  -0.00  -0.00
  12   1     0.00  -0.00  -0.00    -0.00   0.00   0.00     0.00   0.00  -0.00
  13   1     0.00  -0.00   0.00    -0.00   0.00  -0.00     0.00   0.00   0.00
  14   1     0.67  -0.00   0.02     0.34  -0.00   0.01     0.23   0.00   0.01
  15   6    -0.02   0.00  -0.00    -0.01   0.00  -0.00    -0.00   0.00  -0.00
  16   1    -0.00  -0.00   0.00    -0.00  -0.00   0.00    -0.00   0.00   0.00
  17   1    -0.00  -0.00  -0.00    -0.00  -0.00  -0.00    -0.00   0.00  -0.00
  18   1     0.07  -0.01   0.00     0.02  -0.00   0.00     0.02  -0.00   0.00
