 
        ______________________________________
       |                                      |
       |           ==================         |
       |                 x T B                |
       |           ==================         |
       |               S. Grimme              |
       |        Universitaet Bonn, MCTC       |
       |         2015-18, Version 5.8.1       |
       |      Sun May  6 11:39:08 CEST 2018   |
       |______________________________________|
 
        This code comes without any warranty
        for non-commercial, academia use only.
        Preliminary GFN2 test version.
        Test license to: Dow Chemical Company
        Cite GFN-xTB work as:
        S. Grimme, C. Bannwarth, P. Shushkov
        JCTC, 13 (2017) 1989-2009
        for GFN2:
        C. Bannwarth, S. Ehlert, S. Grimme
        to be published.
        sTDA-xTB:
        S. Grimme  &  C. Bannwarth, JCP 145 (2016) 054103
        in the mass-spec context additionally:
        V. Asgeirsson, C.Bauer, S. Grimme, Chem. Sci. 8 (2017) 4879
 
        with help from
        P. Shushkov, G. Brandenburg, S. Dohm, J. Pisarek,
        F. März, M. Checinski, S. Ehrlich, S. Spicher, 
        P. Pracht, E. Caldeweyher, S. Ehlert, and C. Bannwarth.
 
        usage        :
        xtb <coord_file> [options]
        where <coord_file> is a valid file of TM)
        (*coord, Bohr) or xmol (*xyz, Angstroem)
        format.

        options:
        -chrg <int>   : molecular charge
        -uhf  <int>   : # of unpaired electrons(=2*S)
        -nox          : skip second, extended part in sTDA-xTB
        -pop          : do population analysis
                      : (default for -nox)
        -mowr <real>  : cut MO write above (def.3 Eh)
        -molden       : write formatted molden file
        -parx <file>  : read parameters for sTDA-xTB
                        calc (def:~/.param_stda2.xtb)
        -parv <file>  : read parameters for vTB part in
                        sTDA-xTB (def: ~/.param_stda1.xtb)
        -xtemp <real> : el. temp for xTB (def. 0 K)
        -etemp <real> : el. temp for GFN (def. 300 K)
        -fod          : calculate the FOD and write
                        molden.input file with
                        appropriate occupations
                        for plotting. Def. T=12500 K
 
        -gfn1         : use GFN-xTB
        -gfn2         : use GFN2-xTB
        -gfn2d3       : GFN2-xTB with D3 instead of D4
        -grad         : GFNn-xTB gradient
        -acc <real>   : GFNn-xTB accuracy (def. 1.0)
        -opt [level]  : optimize at GFNn-xTB
                      : level=crude,vloose,loose,
                      :       tight,vtight
        -hess         : compute Hessian at GFNn-xTB
        -ohess        : optimize and compute Hessian
        -omd          : optimize and do MD
        -siman        : conformational search
        -screen       : opt. loop over ensemble
        -gmd          : annealed MD for GMD procedure
        -modef        : vib mode following
        -gbsa [string1] [string2]
                        use GBSA implicit solvent
                        for solvent [string1] and
                        solvation state [string2]=
                        reference, bar1M (default=1M)
        additional GFN/opt/MD/siman options read from
        $XTBHOME/.xtbrc or $set in coordinate file
 
       spin and charge state information can be on:
       <.CHRG> (charge) and <.UHF> (=nalpha-nbeta)
       -uhf and -chrg override the file info.
       useful machine settings:
       setenv MKL_NUM_THREADS <NCORE_ON_YOUR_MACHINE>
       setenv OMP_STACKSIZE 500m
       limit stacksize unlimited
 
       total energies in Eh, gaps/HL energies in eV
       please read REVISION and HOWTO files carefully
          72  days left until this code expires
 =============================
  # OMP threads =           2
 =============================
 
 xtbhome directory:/home/ua25450/dftb/
 
 argument            1 :-ohess
 
 name of molecule           :
 comment line               :
 number of atoms            :    12
 number of electrons        :    26
 charge                     :  0
 spin                       : 0.0
 first test random number   :  0.4583
 
 
 -----------------------------------------
  G F N (Geometry, Frequency, Non-covalent)
        parametrization, gfnver=           3
     D4 dispersion model
 /home/ua25450/dftb/.param_gfn2.xtb
 -----------------------------------------
      method parameters     
 k(s)        :  1.8500
 k(p)        :  2.2300
 k(d)        :  2.2300
 k(f)        :  2.0000
 kEN (H0ij)  : -2.0000
 D3 a1       :  0.5200
 D3 a2       :  5.0000
 D3 s8       :  2.7000
 D3atm       :  5.0000
 alphaj      :  2.0000
 
     -------------------------
     ! NO SOLVENT MODEL USED !
     -------------------------
 
 doing EN charges ...
 sum q :  0.3330669D-15
 point charge moment (au)
     X       Y       Z   
   0.1484   0.2101  -0.0553  total (Debye):    0.669
 
            Z     q(EN)     CN     RAES       Cart. coordinates
     1  C   4.0   -0.09    4.05    3.70    -6.87164     0.44611     0.01560
     2  H   1.0    0.04    1.01    1.43    -6.21409    -1.50720     0.06039
     3  H   1.0    0.04    1.01    1.43    -8.93242     0.41378     0.05948
     4  C   4.0   -0.03    4.05    3.70    -5.93412     1.77377     2.39482
     5  H   1.0    0.04    1.00    1.43    -3.85496     1.79992     2.41028
     6  H   1.0    0.04    1.00    1.43    -6.60488     3.74195     2.41024
     7  O   6.0   -0.17    2.03    1.83    -6.86472     0.45613     4.52091
     8  H   1.0    0.11    1.02    1.43    -6.28321     1.27886     6.03484
     9  C   4.0   -0.13    4.02    3.65    -5.94604     1.75490    -2.37232
    10  H   1.0    0.04    1.00    1.43    -3.89130     1.77447    -2.43809
    11  H   1.0    0.04    1.00    1.43    -6.63953     0.77310    -4.03760
    12  H   1.0    0.04    1.00    1.43    -6.61338     3.69831    -2.43875
 
  Z AO/shell   Hii/eV     exponent
  1     Wed Apr 25 08:07:45 CEST 2018   EN: 2.200 GM2: 0.406  GM3: 0.0800  RAES: 1.40
     1s    -10.707211    1.230000
  6     Wed Apr 25 08:07:45 CEST 2018   EN: 2.550 GM2: 0.538  GM3: 0.1500  RAES: 3.00
     2s    -13.970922    2.096432
     2p    -10.063292    1.800000
  8     Wed Apr 25 08:07:45 CEST 2018   EN: 3.440 GM2: 0.452  GM3:-0.0517  RAES: 1.80
     2s    -20.229985    2.439742
     2p    -15.503117    2.137023
 
Refinement of some symmetry elements was terminated before convergence was reached.
Some symmetry elements may remain unidentified.
Molecule has the following symmetry elements: (sigma) 
It seems to be the Cs point group
cs  symmetry found (for desy threshold:  0.10E+00) used in thermo
 no old-style atom pair restraing (fixing) potential
 
             =======================================
             |                                     |
             |        S C C  calculation           |
             |                                     |
             =======================================
 #proc     :            2
 Ncao      :           24
 Nao       :           24
 Nel       :           26
 T(el)     :   300.0
 intcut    :    25.0
 scfconv   :  0.100E-05
   qconv   :  0.100E-03
 intneglect:  0.100E-07
 broydamp  :      0.400
 Nshell    :           16
 iter      E             dE          RMSdq      gap      omega  full diag
   1    -14.6901064 -0.146901E+02  0.406E+00   12.36       0.0  T
   2    -14.7214642 -0.313578E-01  0.198E+00   12.27       1.0  T
   3    -14.7239658 -0.250160E-02  0.607E-01   12.16       1.0  T
   4    -14.7240971 -0.131236E-03  0.213E-01   12.18       1.0  T
   5    -14.7241475 -0.504283E-04  0.602E-02   12.23       1.0  T
   6    -14.7241519 -0.445698E-05  0.260E-02   12.23       1.1  T
   7    -14.7241522 -0.291205E-06  0.536E-03   12.23       5.4  T
   8    -14.7241523 -0.406344E-07  0.210E-03   12.23      13.8  T
   9    -14.7241523 -0.135213E-08  0.273E-04   12.23     105.7  T
  10    -14.7241523 -0.138172E-09  0.109E-04   12.23     264.6  T
speedup  1.00
cpu  time for SCC    0.00 s
wall time for SCC    0.00 s

          eigenvalues
 #    :           1          2          3          4          5          6          7          8
 occ. :        2.000      2.000      2.000      2.000      2.000      2.000      2.000      2.000
 eps  :       -18.636    -17.127    -16.359    -15.576    -15.093    -14.491    -13.992    -13.279
 #    :           9         10         11         12         13         14         15         16
 occ. :        2.000      2.000      2.000      2.000      2.000      0.000      0.000      0.000
 eps  :       -12.848    -12.501    -11.884    -11.864    -11.076      1.158      3.196      3.537
 #    :          17         18         19         20         21         22         23         24
 occ. :        0.000      0.000      0.000      0.000      0.000      0.000      0.000      0.000
 eps  :         3.617      4.090      4.834      5.103      5.847      6.820      7.099      8.083
 

   #   Z            q   n(s)   n(p)   n(d)      C6AA      α(0)    relVol
   1   6 C     -0.060  1.047  3.013  0.000    21.755     6.655     0.539
   2   1 H      0.048  0.952  0.000  0.000     2.332     2.388     0.472
   3   1 H      0.048  0.952  0.000  0.000     2.333     2.388     0.473
   4   6 C      0.088  1.035  2.876  0.000    19.453     6.343     0.513
   5   1 H      0.014  0.986  0.000  0.000     2.823     2.627     0.520
   6   1 H      0.014  0.986  0.000  0.000     2.823     2.627     0.520
   7   8 O     -0.444  1.709  4.735  0.000    22.232     6.379     1.228
   8   1 H      0.284  0.716  0.000  0.000     0.710     1.322     0.262
   9   6 C     -0.107  1.037  3.070  0.000    22.752     6.822     0.552
  10   1 H      0.036  0.964  0.000  0.000     2.501     2.473     0.489
  11   1 H      0.042  0.958  0.000  0.000     2.417     2.431     0.481
  12   1 H      0.036  0.964  0.000  0.000     2.501     2.473     0.489

 Mol. C6AA /au*bohr^6 :        927.977858
 Mol. C8AA /au*bohr^6 :      18765.240276
 Mol. a(0) /au        :         44.929757

 
 Wiberg/Mayer (AO) data. WBOs > 0.1 written file <wbo>
 largest (>0.05) Wiberg bond orders for each atom
           total WBO             WBO to atom ...
     1  C   3.995    C    9 1.020    C    4 1.005    H    3 0.977    H    2 0.977
     2  H   0.998    C    1 0.977
     3  H   0.998    C    1 0.977
     4  C   3.956    C    1 1.005    O    7 0.994    H    5 0.972    H    6 0.972
     5  H   1.000    C    4 0.972
     6  H   1.000    C    4 0.972
     7  O   1.950    C    4 0.994    H    8 0.906
     8  H   0.919    O    7 0.906
     9  C   3.997    C    1 1.020    H   12 0.988    H   10 0.988    H   11 0.987
    10  H   0.999    C    9 0.988
    11  H   0.998    C    9 0.987
    12  H   0.999    C    9 0.988
 
molecular dipole:
                 x           y           z       tot (Debye)
 q only:        0.252       0.356      -0.094
   full:        0.681       0.556       0.010       1.731
molecular quadrupole (traceless):
                xx          xy          yy          xz          yz          zz
 q only:       -4.580      -3.048       1.416       2.797       2.520       3.164
  q+dip:       -6.140      -5.532       2.663       3.156       4.612       3.476
   full:       -6.676      -5.125       2.415       2.964       4.341       4.261
 SCC converged in           10  cycles
 
SCC energy    :     -14.7241523
rep           :       0.1677622
ES            :       0.0261876
AES           :       0.0033830
AXC           :       0.0039452
disp          :      -0.0047924
XB            :       0.0000000
fix           :       0.0000000
total E       :     -14.5563885
atomizationE  :       2.7740998     1740.77
(atE without considerung molecular charge,
 total energy contains solvation terms)
H-L gap (eV)  :         12.2346
 
             =======================================
             |                                     |
             |    Approximate Normal Coordinate    |
             |   Rational Function Optimization    |
             |                                     |
             =======================================
Ref. for RF algo: F.Eckert, P.Pulay, H.-J.Werner
                  J.Comput.Chem. 18 (1997) 1473.
ANC idea implemented by S. Grimme in the 2000ers (unpublished)
restraining potential by S. Ehrlich.
dumping coords to <xtbopt.coord> and <xtbopt.log
 optlevel               1
 Maxcycle             200
 Maxmicro              20
 Econv         1.000000000000000E-006
 Gconv         8.000000000000000E-004
 Maxdispl       1.00000000000000     
 Hlow          1.000000000000000E-002
 S6             20.0000000000000     
 Nvar               30

generating ANC from model Hessian ...
 Shifting diagonal of input Hessian by   3.421961543373035E-003
 Lowest  eigenvalues of input Hessian
   -0.000000   -0.000000   -0.000000    0.000000    0.000000    0.000000
    0.010000    0.013115    0.013477    0.034312    0.036698    0.045431
    0.057574    0.057898    0.062466    0.074319    0.081503    0.092794
 Highest eigenvalues
    1.107183    1.168748    1.186595    1.257553    1.274729    1.499257
 
cpu  time for ANC gen    0.01 s
wall time for ANC gen    0.01 s
................................................................................
.............................. CYCLE    1 ......................................
................................................................................
  q data taken from xtbrestart
  CAMM data taken from xtbrestart
   1    -14.7241523 -0.147242E+02  0.186E-05   12.23       0.0  T
   2    -14.7241523 -0.948575E-12  0.944E-06   12.23    3059.4  T
   3    -14.7241523 -0.639488E-13  0.457E-06   12.23    6313.2  T
speedup  1.00
cpu  time for SCC    0.00 s
wall time for SCC    0.00 s
speedup  1.00
cpu  time for grad    0.00 s
wall time for grad    0.00 s
 E :    -14.55638850  G :  0.000187    pred/act E change:  0.000D+00 -0.187D-09
Maxdispl :   0.0005   ||displ|| :   0.0008   Lambda : -0.827D-07
Largest |displ|/coords:  0.0005 (  11)  0.0003 (  19)  0.0002 (  12)
ancopt converged in          1 cycles
total energy gain (kcal):      0.0000
================
 final structure:
================
    12
        -14.55638850
C          -3.63631770185730    0.23607006221036    0.00825711503106
H          -3.28835454948909   -0.79757336319885    0.03195456085958
H          -4.72683362641394    0.21896033588648    0.03147735872158
C          -3.14020095043631    0.93864040189655    1.26728556841302
H          -2.03995476528984    0.95247440676359    1.27546715249462
H          -3.49515056817677    1.98015598574856    1.27544477159695
O          -3.63265538278316    0.24137223441995    2.39236092451929
H          -3.32493359284143    0.67674345132373    3.19349757952335
C          -3.14650726398509    0.92865093948308   -1.25537537884495
H          -2.05918975922079    0.93900809280937   -1.29018215518299
H          -3.51348759645851    0.40910852947761   -2.13660674158002
H          -3.49965270304778    1.95706003317957   -1.29053190555150
 
 Bond Distances (Angstroems)
 ---------------------------
C1-H2=1.0909         C1-H3=1.0909         C1-C4=1.5248         C1-C9=1.5220         H2-C1=1.0909         H3-C1=1.0909         
C4-C1=1.5248         C4-H5=1.1004         C4-H6=1.1004         C4-O7=1.4123         H5-C4=1.1004         H6-C4=1.1004         
O7-C4=1.4123         O7-H8=0.9623         H8-O7=0.9623         C9-C1=1.5220         C9-H10=1.0879        C9-H11=1.0868        
C9-H12=1.0879        H10-C9=1.0879        H11-C9=1.0868        H12-C9=1.0879        
 C  H  Rav=1.0922 sigma=0.0054  Rmin=1.0868  Rmax=1.1004     7
 C  C  Rav=1.5234 sigma=0.0014  Rmin=1.5220  Rmax=1.5248     2
 O  H  Rav=0.9623 sigma=0.0000  Rmin=0.9623  Rmax=0.9623     1
 O  C  Rav=1.4123 sigma=0.0000  Rmin=1.4123  Rmax=1.4123     1
 
 selected bond angles (degree)
 --------------------
H3-C1-H2=107.67                C4-C1-H2=108.35                C4-C1-H3=108.36                C9-C1-H2=110.28                
C9-C1-H3=110.28                C9-C1-C4=111.79                H5-C4-C1=109.71                H6-C4-C1=109.71                
H6-C4-H5=108.09                O7-C4-C1=108.47                O7-C4-H5=110.42                O7-C4-H6=110.42                
H8-O7-C4=109.17                H10-C9-C1=110.64               H11-C9-C1=110.30               H11-C9-H10=108.43              
H12-C9-C1=110.64               H12-C9-H10=108.32              H12-C9-H11=108.43              
 
 selected dihedral angles (degree)
 ---------------------------------
H5-C4-C1-H2= 62.44            H5-C4-C1-H3=178.99            H5-C4-C1-C9=300.72            H6-C4-C1-H2=181.05            
H6-C4-C1-H3=297.60            H6-C4-C1-C9= 59.33            O7-C4-C1-H2=301.75            O7-C4-C1-H3= 58.30            
O7-C4-C1-C9=180.02            H8-O7-C4-C1=179.99            H8-O7-C4-H5= 59.73            H8-O7-C4-H6=300.24            
H10-C9-C1-H2=299.43           H10-C9-C1-H3=180.65           H10-C9-C1-C4= 60.03           H11-C9-C1-H2= 59.40           
H11-C9-C1-H3=300.62           H11-C9-C1-C4=180.00           H12-C9-C1-H2=179.36           H12-C9-C1-H3= 60.58           
H12-C9-C1-C4=299.97           
 
             =======================================
             |                                     |
             |        S C C  calculation           |
             |                                     |
             =======================================
 #proc     :            2
 Ncao      :           24
 Nao       :           24
 Nel       :           26
 T(el)     :   300.0
 intcut    :    25.0
 scfconv   :  0.100E-05
   qconv   :  0.100E-03
 intneglect:  0.100E-07
 broydamp  :      0.400
 Nshell    :           16
 iter      E             dE          RMSdq      gap      omega  full diag
   1    -14.7241523 -0.147242E+02  0.141E-06   12.23       0.0  T
   2    -14.7241523 -0.710543E-14  0.795E-07   12.23   36294.1  T
   3    -14.7241523  0.532907E-14  0.293E-07   12.23   98393.1  T
speedup  1.00
cpu  time for SCC    0.00 s
wall time for SCC    0.00 s

          eigenvalues
 #    :           1          2          3          4          5          6          7          8
 occ. :        2.000      2.000      2.000      2.000      2.000      2.000      2.000      2.000
 eps  :       -18.636    -17.127    -16.359    -15.576    -15.093    -14.491    -13.992    -13.279
 #    :           9         10         11         12         13         14         15         16
 occ. :        2.000      2.000      2.000      2.000      2.000      0.000      0.000      0.000
 eps  :       -12.848    -12.501    -11.884    -11.864    -11.076      1.158      3.196      3.537
 #    :          17         18         19         20         21         22         23         24
 occ. :        0.000      0.000      0.000      0.000      0.000      0.000      0.000      0.000
 eps  :         3.617      4.090      4.834      5.103      5.847      6.820      7.099      8.083
 

   #   Z            q   n(s)   n(p)   n(d)      C6AA      α(0)    relVol
   1   6 C     -0.060  1.047  3.013  0.000    21.756     6.655     0.539
   2   1 H      0.048  0.952  0.000  0.000     2.332     2.388     0.472
   3   1 H      0.048  0.952  0.000  0.000     2.333     2.388     0.473
   4   6 C      0.088  1.035  2.876  0.000    19.453     6.343     0.513
   5   1 H      0.014  0.986  0.000  0.000     2.823     2.627     0.520
   6   1 H      0.014  0.986  0.000  0.000     2.823     2.627     0.520
   7   8 O     -0.444  1.709  4.735  0.000    22.232     6.379     1.228
   8   1 H      0.284  0.716  0.000  0.000     0.710     1.322     0.262
   9   6 C     -0.107  1.037  3.070  0.000    22.752     6.822     0.552
  10   1 H      0.036  0.964  0.000  0.000     2.501     2.473     0.489
  11   1 H      0.042  0.958  0.000  0.000     2.417     2.431     0.481
  12   1 H      0.036  0.964  0.000  0.000     2.501     2.473     0.489

 Mol. C6AA /au*bohr^6 :        927.976717
 Mol. C8AA /au*bohr^6 :      18765.229915
 Mol. a(0) /au        :         44.929730

 
 Wiberg/Mayer (AO) data. WBOs > 0.1 written file <wbo>
 largest (>0.05) Wiberg bond orders for each atom
           total WBO             WBO to atom ...
     1  C   3.995    C    9 1.020    C    4 1.005    H    3 0.977    H    2 0.977
     2  H   0.998    C    1 0.977
     3  H   0.998    C    1 0.977
     4  C   3.956    C    1 1.005    O    7 0.994    H    5 0.972    H    6 0.972
     5  H   1.000    C    4 0.972
     6  H   1.000    C    4 0.972
     7  O   1.950    C    4 0.994    H    8 0.906
     8  H   0.919    O    7 0.906
     9  C   3.997    C    1 1.020    H   12 0.988    H   10 0.988    H   11 0.987
    10  H   0.999    C    9 0.988
    11  H   0.998    C    9 0.987
    12  H   0.999    C    9 0.988
 
molecular dipole:
                 x           y           z       tot (Debye)
 q only:        0.252       0.356      -0.094
   full:        0.393       0.556       0.010       1.731
molecular quadrupole (traceless):
                xx          xy          yy          xz          yz          zz
 q only:       -4.580      -3.048       1.416       2.797       2.520       3.164
  q+dip:       -6.140      -5.532       2.663       3.156       4.612       3.476
   full:       -6.676      -5.125       2.415       2.964       4.341       4.261
 SCC converged in            3  cycles
 
SCC energy    :     -14.7241523
rep           :       0.1677622
ES            :       0.0261862
AES           :       0.0033829
AXC           :       0.0039451
disp          :      -0.0047924
XB            :       0.0000000
fix           :       0.0000000
total E       :     -14.5563885
atomizationE  :       2.7740998     1740.77
(atE without considerung molecular charge,
 total energy contains solvation terms)
H-L gap (eV)  :         12.2346
 !!!!!!!!!!!!!!!!!!!!!!!!!!!!!!!!!!!
 ! Note: the input coordinates are !
 ! NOT overwritten. The optimized  !
 ! ones are on file <xtbopt.coord> !
 ! (or on <xtbopt.xyz> if it was a !
 ! xyz file)                       !
 !!!!!!!!!!!!!!!!!!!!!!!!!!!!!!!!!!!
 
Refinement of some symmetry elements was terminated before convergence was reached.
Some symmetry elements may remain unidentified.
Molecule has the following symmetry elements: (sigma) 
It seems to be the Cs point group
cs  symmetry found (for desy threshold:  0.10E+00) used in thermo
  q data taken from xtbrestart
  CAMM data taken from xtbrestart
 
             =======================================
             |                                     |
             |         Numerical Hessian           |
             |                                     |
             =======================================
step length          :   0.00500
SCC accuracy         :   0.30000
Hessian scale factor :   1.00000
frozen atoms in %    :   0.00000    0
RMS gradient         :   0.00019
estimated CPU  time      0.01 min
estimated wall time      0.01 min
 
 writing file <hessian>.
 
 projected vibrational frequencies (cm-1)
eig.   :       -0.00    -0.00    -0.00     0.00     0.00     0.00
eig.   :      103.42   222.93   270.51   290.81   439.86   792.70
eig.   :      906.30   919.84  1075.00  1083.98  1105.91  1157.66
eig.   :     1229.40  1231.33  1277.70  1317.17  1383.99  1414.75
eig.   :     1492.87  1496.29  1502.66  1505.69  2849.37  2882.73
eig.   :     2990.02  3002.29  3030.82  3034.70  3045.64  3565.24
 reduced masses (amu)
   1: 10.95   2: 11.21   3: 10.31   4: 10.73   5:  9.38   6:  9.74   7:  9.06   8:  1.75
   9:  9.17  10:  2.17  11: 11.54  12:  1.87  13:  2.31  14:  6.27  15: 10.72  16:  6.18
  17:  9.31  18:  5.23  19:  3.93  20:  3.35  21:  1.88  22:  4.51  23:  4.76  24:  3.19
  25:  1.91  26:  1.81  27:  1.54  28:  1.63  29:  1.98  30:  1.42  31:  1.97  32:  1.49
  33:  1.97  34:  1.63  35:  1.57  36:  1.88
 IR intensities (amu)
   1:  0.19   2:  0.06   3:  0.27   4:  0.07   5:  0.31   6:  0.08   7:  0.45   8:  0.06
   9:  0.25  10:  0.48  11:  0.31  12:  0.04  13:  0.18  14:  0.15  15:  0.95  16:  0.28
  17:  0.65  18:  0.28  19:  0.39  20:  0.15  21:  0.02  22:  0.28  23:  0.22  24:  0.03
  25:  0.09  26:  0.09  27:  0.03  28:  0.05  29:  0.40  30:  0.32  31:  0.21  32:  0.18
  33:  0.29  34:  0.24  35:  0.18  36:  0.14
 output can be read by thermo (or use thermo option).
 writing <g98.out> molden fake output.
 recommended (thermochemical) frequency scaling factor: 1.0
                    ==================
                    thermo calculation
                    ==================
Nvib :   30 Nimag : 0  symmetry :   cs  rot number :  1  scale factor : 1.00 sthr :  50.
omega=103.42     Gvib=    -1.010     Grot=    -0.841     Gused=    -1.002
omega=222.93     Gvib=    -0.577     Grot=    -0.614     Gused=    -0.577
omega=270.51     Gvib=    -0.475     Grot=    -0.556     Gused=    -0.475
omega=290.81     Gvib=    -0.438     Grot=    -0.535     Gused=    -0.438
 
   temp. (K)  partition function   enthalpy   heat capacity  entropy
                                   cal/mol     cal/K/mol   cal/K/mol   J/K/mol
 298.15  VIB   8.65                 1747.763     12.473     10.121
         ROT  0.455E+05              888.752      2.981     24.294
         INT  0.393E+06             2636.516     15.454     34.416
         TR   0.451E+27             1481.254      4.968     38.183
         TOT                        4117.7694    20.4223    72.5983   303.7503
                     Eh         kcal/mol          kJ/mol 
ZPVE            0.106212         66.6489         278.858    
H(0)-H(T)+PV    0.656208E-02     4.11777         17.2287    
H(T)            0.112774         70.7667         296.087    
T*S             0.344938E-01     21.6452         90.5631    
G(T)            0.782801E-01     49.1215         205.524    
    -14.47810842  <=== TOTAL FREE ENERGY in Eh incl. el.,ZPVE,RRHO,solv. parts
 
Eat (element increment corrected) /kcal :  1233.824
        -174.013  <=== HOF(298)/kcal, to be compared to exptl. data
 
 normal mode %tage of torsion character
   1:  0.00   2:  0.00   3:  0.00   4:  0.00   5:  0.00   6:  0.00   7:  0.46   8:  0.70
   9:  0.27  10:  0.95  11:  0.18  12:  0.75  13:  0.15  14:  0.20  15:  0.11  16:  0.16
  17:  0.22  18:  0.34  19:  0.11  20:  0.28  21:  0.15  22:  0.50  23:  0.23  24:  0.01
  25:  0.37  26:  0.41  27:  0.93  28:  0.76  29:  0.06  30:  0.01  31:  0.08  32:  0.08
  33:  0.04  34:  0.02  35:  0.02  36:  0.00
 recommended # of modes for mode following           4
 
speedup  0.97
cpu  time for all    0.73 s
wall time for all    0.76 s
