 Entering Gaussian System
 *********************************************
 Gaussian 98:
 frequency output generated by the xtb code
 *********************************************
                         Standard orientation:
 --------------------------------------------------------------------
  Center     Atomic     Atomic              Coordinates (Angstroms)
  Number     Number      Type              X           Y           Z
 --------------------------------------------------------------------
    1          6             0       -3.636316    0.236089    0.008269
    2          1             0       -3.288359   -0.797556    0.031967
    3          1             0       -4.726832    0.218985    0.031493
    4          6             0       -3.140192    0.938659    1.267295
    5          1             0       -2.039945    0.952487    1.275473
    6          1             0       -3.495136    1.980176    1.275453
    7          8             0       -3.632646    0.241395    2.392373
    8          1             0       -3.324919    0.676766    3.193508
    9          6             0       -3.146507    0.928665   -1.255366
   10          1             0       -2.059189    0.939017   -1.290177
   11          1             0       -3.513493    0.409123   -2.136595
   12          1             0       -3.499647    1.957076   -1.290523
 --------------------------------------------------------------------
     1 basis functions        1 primitive gaussians
     1 alpha electrons        1 beta electrons
 
 Harmonic frequencies (cm**-1), IR intensities (KM/Mole),
 Raman scattering activities (A**4/amu), Raman depolarization ratios,
 reduced masses (AMU), force constants (mDyne/A) and normal coordinates:
                      1                      2                      3
                        a                      a                      a 
 Frequencies --   103.4219               222.9266               270.5144
 Red. masses --     9.0645                 1.7482                 9.1671
 Frc consts  --     0.0000                 0.0000                 0.0000
 IR Inten    --     0.4512                 0.0618                 0.2521
 Raman Activ --     0.0000                 0.0000                 0.0000
 Depolar     --     0.0000                 0.0000                 0.0000
 Atom AN      X      Y      Z        X      Y      Z        X      Y      Z
   1   6    -0.30   0.21  -0.00     0.19  -0.14  -0.00     0.23   0.33   0.20
   2   1    -0.18   0.03   0.09     0.13  -0.01  -0.01     0.06   0.09   0.12
   3   1    -0.09   0.16  -0.09     0.06  -0.12   0.01     0.07   0.09   0.12
   4   6    -0.36   0.25  -0.00    -0.08   0.05  -0.00     0.19   0.27   0.25
   5   1    -0.10   0.23  -0.09    -0.02   0.11   0.03     0.05   0.07   0.15
   6   1    -0.25   0.02   0.09    -0.11  -0.01  -0.03     0.05   0.07   0.15
   7   8     0.38  -0.27   0.00    -0.02   0.01   0.00    -0.19  -0.27  -0.24
   8   1     0.07  -0.05  -0.00    -0.13   0.09  -0.00    -0.13  -0.19   0.04
   9   6     0.28  -0.19   0.00    -0.04   0.03   0.00    -0.16  -0.23  -0.24
  10   1     0.08  -0.21   0.06    -0.02  -0.41  -0.30    -0.05  -0.07  -0.19
  11   1     0.06  -0.04   0.00    -0.46   0.33  -0.00    -0.14  -0.20   0.05
  12   1     0.23  -0.01  -0.06     0.38   0.16   0.30    -0.05  -0.07  -0.19
                      4                      5                      6
                        a                      a                      a 
 Frequencies --   290.8077               439.8642               792.7036
 Red. masses --     2.1739                11.5367                 1.8749
 Frc consts  --     0.0000                 0.0000                 0.0000
 IR Inten    --     0.4844                 0.3126                 0.0386
 Raman Activ --     0.0000                 0.0000                 0.0000
 Depolar     --     0.0000                 0.0000                 0.0000
 Atom AN      X      Y      Z        X      Y      Z        X      Y      Z
   1   6    -0.08   0.06  -0.00    -0.11  -0.16   0.25     0.20  -0.14   0.00
   2   1    -0.08  -0.00  -0.01    -0.02  -0.04   0.13    -0.47  -0.21   0.01
   3   1    -0.02   0.08   0.01    -0.03  -0.04   0.13     0.04   0.52  -0.01
   4   6     0.10  -0.07  -0.00     0.15   0.21  -0.19     0.09  -0.06  -0.00
   5   1     0.03  -0.04  -0.01     0.04   0.06  -0.07     0.01   0.29   0.15
   6   1     0.05  -0.02   0.01     0.04   0.06  -0.07    -0.27  -0.11  -0.15
   7   8     0.20  -0.14   0.00     0.00   0.00  -0.62    -0.04   0.03   0.00
   8   1    -0.77   0.54   0.00    -0.06  -0.09  -0.08     0.02  -0.01   0.00
   9   6    -0.02   0.01   0.00    -0.04  -0.05   0.49     0.04  -0.03   0.00
  10   1    -0.00   0.04   0.04    -0.01  -0.01   0.21    -0.00   0.21  -0.20
  11   1     0.04  -0.03  -0.00     0.05   0.07   0.07    -0.08   0.06  -0.00
  12   1    -0.04  -0.01  -0.04    -0.00  -0.01   0.21    -0.20  -0.07   0.20
                      7                      8                      9
                        a                      a                      a 
 Frequencies --   906.3017               919.8389              1074.9977
 Red. masses --     2.3091                 6.2655                10.7189
 Frc consts  --     0.0000                 0.0000                 0.0000
 IR Inten    --     0.1773                 0.1517                 0.9467
 Raman Activ --     0.0000                 0.0000                 0.0000
 Depolar     --     0.0000                 0.0000                 0.0000
 Atom AN      X      Y      Z        X      Y      Z        X      Y      Z
   1   6    -0.04   0.03  -0.00    -0.20  -0.28  -0.14    -0.22  -0.31   0.17
   2   1     0.02   0.01  -0.37    -0.05  -0.07   0.09    -0.07  -0.09  -0.08
   3   1    -0.00  -0.03   0.37    -0.05  -0.07   0.09    -0.06  -0.09  -0.08
   4   6     0.23  -0.16   0.00     0.23   0.33   0.18    -0.09  -0.13   0.51
   5   1     0.05   0.35   0.16     0.06   0.08   0.09    -0.01  -0.01   0.01
   6   1    -0.31  -0.16  -0.16     0.05   0.08   0.09    -0.01  -0.02   0.01
   7   8    -0.07   0.05   0.00    -0.03  -0.04   0.12     0.19   0.27  -0.35
   8   1     0.01  -0.01   0.00    -0.11  -0.16   0.15    -0.11  -0.16   0.10
   9   6    -0.14   0.10  -0.00    -0.05  -0.07  -0.34     0.17   0.24  -0.17
  10   1    -0.02  -0.24   0.29    -0.00   0.03   0.21     0.04   0.04  -0.22
  11   1     0.13  -0.09  -0.00     0.23   0.32  -0.39    -0.06  -0.09   0.08
  12   1     0.22   0.10  -0.29     0.03   0.01   0.21     0.02   0.05  -0.22
                     10                     11                     12
                        a                      a                      a 
 Frequencies --  1083.9752              1105.9121              1157.6578
 Red. masses --     6.1791                 9.3095                 5.2282
 Frc consts  --     0.0000                 0.0000                 0.0000
 IR Inten    --     0.2780                 0.6525                 0.2846
 Raman Activ --     0.0000                 0.0000                 0.0000
 Depolar     --     0.0000                 0.0000                 0.0000
 Atom AN      X      Y      Z        X      Y      Z        X      Y      Z
   1   6    -0.09  -0.13  -0.37    -0.15  -0.21   0.38    -0.29   0.20  -0.00
   2   1    -0.01  -0.03  -0.31    -0.03  -0.05   0.21     0.18   0.14   0.12
   3   1    -0.03  -0.02  -0.31    -0.04  -0.05   0.21    -0.07  -0.22  -0.12
   4   6     0.22   0.32  -0.04     0.11   0.16  -0.42     0.35  -0.25   0.00
   5   1     0.05   0.07  -0.06     0.02   0.01  -0.17     0.08   0.33  -0.27
   6   1     0.05   0.07  -0.06     0.00   0.02  -0.17    -0.29  -0.19   0.27
   7   8    -0.03  -0.04   0.19    -0.14  -0.19   0.25    -0.13   0.09  -0.00
   8   1    -0.20  -0.28   0.26    -0.04  -0.06   0.07    -0.01   0.01  -0.00
   9   6    -0.00  -0.01   0.32     0.21   0.30  -0.18     0.17  -0.12  -0.00
  10   1    -0.01  -0.05  -0.10     0.05   0.05  -0.22     0.03   0.15  -0.17
  11   1    -0.14  -0.19   0.24    -0.05  -0.07   0.08    -0.07   0.05  -0.00
  12   1    -0.04  -0.03  -0.10     0.03   0.06  -0.22    -0.13  -0.08   0.17
                     13                     14                     15
                        a                      a                      a 
 Frequencies --  1229.4022              1231.3319              1277.7021
 Red. masses --     3.9333                 3.3507                 1.8765
 Frc consts  --     0.0000                 0.0000                 0.0000
 IR Inten    --     0.3885                 0.1549                 0.0235
 Raman Activ --     0.0000                 0.0000                 0.0000
 Depolar     --     0.0000                 0.0000                 0.0000
 Atom AN      X      Y      Z        X      Y      Z        X      Y      Z
   1   6    -0.17  -0.24  -0.17    -0.23   0.16  -0.00    -0.17   0.12  -0.00
   2   1    -0.04  -0.06  -0.00     0.11   0.09  -0.42     0.10   0.09   0.40
   3   1    -0.04  -0.06  -0.00    -0.05  -0.13   0.42    -0.05  -0.12  -0.40
   4   6     0.15   0.22   0.07    -0.10   0.07   0.00     0.13  -0.09   0.00
   5   1     0.04   0.06   0.34    -0.03  -0.09   0.29     0.02   0.05   0.53
   6   1     0.04   0.05   0.34     0.08   0.06  -0.29    -0.03  -0.04  -0.53
   7   8    -0.11  -0.15  -0.02     0.07  -0.05   0.00     0.06  -0.04  -0.00
   8   1     0.31   0.44  -0.39     0.01  -0.00  -0.00     0.02  -0.01  -0.00
   9   6     0.08   0.11   0.07     0.28  -0.19   0.00    -0.04   0.03   0.00
  10   1     0.01  -0.02  -0.11     0.05   0.21  -0.23    -0.01  -0.02   0.03
  11   1    -0.06  -0.09   0.12    -0.11   0.08   0.00    -0.01   0.01   0.00
  12   1    -0.02   0.01  -0.11    -0.18  -0.12   0.23     0.01   0.02  -0.03
                     16                     17                     18
                        a                      a                      a 
 Frequencies --  1317.1665              1383.9950              1414.7484
 Red. masses --     4.5062                 4.7630                 3.1940
 Frc consts  --     0.0000                 0.0000                 0.0000
 IR Inten    --     0.2844                 0.2225                 0.0260
 Raman Activ --     0.0000                 0.0000                 0.0000
 Depolar     --     0.0000                 0.0000                 0.0000
 Atom AN      X      Y      Z        X      Y      Z        X      Y      Z
   1   6    -0.01  -0.01  -0.46    -0.02  -0.02   0.31     0.00   0.00   0.08
   2   1    -0.00   0.01   0.48     0.03   0.00  -0.22    -0.05  -0.02  -0.07
   3   1     0.01   0.00   0.48    -0.01   0.03  -0.22    -0.00  -0.05  -0.07
   4   6    -0.10  -0.14  -0.10    -0.05  -0.08  -0.44     0.01   0.02   0.01
   5   1    -0.03  -0.01   0.21    -0.02  -0.03   0.50     0.01   0.02  -0.02
   6   1     0.00  -0.03   0.21    -0.02  -0.03   0.50     0.01   0.01  -0.02
   7   8     0.10   0.15  -0.01     0.10   0.14  -0.00    -0.01  -0.02   0.00
   8   1    -0.13  -0.19   0.18    -0.12  -0.17   0.16     0.01   0.02  -0.02
   9   6     0.07   0.10   0.08    -0.02  -0.03  -0.06     0.13   0.18  -0.38
  10   1     0.01  -0.06  -0.01    -0.00   0.04   0.01     0.03  -0.21   0.46
  11   1    -0.09  -0.12   0.15     0.02   0.03  -0.04    -0.25  -0.35   0.28
  12   1    -0.06  -0.01  -0.01     0.04   0.01   0.01    -0.21  -0.04   0.46
                     19                     20                     21
                        a                      a                      a 
 Frequencies --  1492.8719              1496.2897              1502.6644
 Red. masses --     1.9063                 1.8079                 1.5357
 Frc consts  --     0.0000                 0.0000                 0.0000
 IR Inten    --     0.0912                 0.0928                 0.0332
 Raman Activ --     0.0000                 0.0000                 0.0000
 Depolar     --     0.0000                 0.0000                 0.0000
 Atom AN      X      Y      Z        X      Y      Z        X      Y      Z
   1   6     0.12   0.17  -0.02    -0.10  -0.14  -0.02     0.04  -0.03  -0.00
   2   1    -0.48  -0.15   0.01     0.41   0.13   0.01    -0.01  -0.01   0.02
   3   1     0.02  -0.50   0.01    -0.01   0.43   0.01     0.01   0.01  -0.02
   4   6     0.10   0.15  -0.00     0.11   0.16   0.05    -0.00   0.00   0.00
   5   1     0.00  -0.43   0.03     0.00  -0.52  -0.01     0.00  -0.00  -0.02
   6   1    -0.41  -0.14   0.03    -0.49  -0.17  -0.01     0.00  -0.00   0.02
   7   8     0.02   0.02  -0.01     0.01   0.02  -0.02    -0.00   0.00  -0.00
   8   1    -0.00  -0.00   0.00     0.00   0.01  -0.01     0.00  -0.00  -0.00
   9   6    -0.03  -0.04   0.00     0.01   0.01  -0.02     0.18  -0.12  -0.00
  10   1    -0.00   0.14   0.01     0.00  -0.04   0.02     0.02   0.17   0.44
  11   1    -0.02  -0.03   0.03    -0.01  -0.01   0.01    -0.58   0.41  -0.00
  12   1     0.13   0.05   0.01    -0.04  -0.01   0.02    -0.15  -0.08  -0.44
                     22                     23                     24
                        a                      a                      a 
 Frequencies --  1505.6936              2849.3664              2882.7345
 Red. masses --     1.6263                 1.9750                 1.4194
 Frc consts  --     0.0000                 0.0000                 0.0000
 IR Inten    --     0.0460                 0.3980                 0.3235
 Raman Activ --     0.0000                 0.0000                 0.0000
 Depolar     --     0.0000                 0.0000                 0.0000
 Atom AN      X      Y      Z        X      Y      Z        X      Y      Z
   1   6     0.05   0.07   0.05     0.01  -0.00   0.00     0.00   0.00  -0.00
   2   1    -0.11  -0.03  -0.03    -0.01   0.04   0.00     0.01  -0.03   0.00
   3   1     0.01  -0.12  -0.03    -0.04  -0.00  -0.00    -0.03   0.00   0.00
   4   6     0.01   0.01  -0.02    -0.24   0.17   0.00    -0.11  -0.16  -0.02
   5   1    -0.00  -0.07   0.01     0.67   0.03   0.01     0.69  -0.04   0.00
   6   1    -0.07  -0.03   0.01     0.20  -0.64  -0.01    -0.26   0.64   0.00
   7   8     0.01   0.01  -0.00    -0.01   0.00  -0.00    -0.01  -0.01   0.02
   8   1    -0.01  -0.01   0.01     0.00  -0.00  -0.00    -0.00  -0.00   0.00
   9   6     0.11   0.15   0.11     0.00  -0.00   0.00     0.00   0.01   0.00
  10   1     0.01  -0.62  -0.13    -0.01   0.00  -0.00    -0.01   0.00  -0.00
  11   1     0.16   0.22  -0.18     0.00  -0.00  -0.00    -0.00  -0.00  -0.01
  12   1    -0.59  -0.20  -0.13    -0.00   0.01   0.00     0.00  -0.01  -0.00
                     25                     26                     27
                        a                      a                      a 
 Frequencies --  2990.0201              3002.2867              3030.8157
 Red. masses --     1.9743                 1.4944                 1.9654
 Frc consts  --     0.0000                 0.0000                 0.0000
 IR Inten    --     0.2104                 0.1755                 0.2868
 Raman Activ --     0.0000                 0.0000                 0.0000
 Depolar     --     0.0000                 0.0000                 0.0000
 Atom AN      X      Y      Z        X      Y      Z        X      Y      Z
   1   6     0.24  -0.17   0.00    -0.12  -0.17   0.01     0.05  -0.04   0.00
   2   1    -0.20   0.63  -0.01    -0.25   0.63  -0.01    -0.04   0.12  -0.00
   3   1    -0.66  -0.03   0.01     0.68  -0.02  -0.01    -0.13  -0.00   0.00
   4   6     0.02  -0.01  -0.00    -0.01  -0.01  -0.00     0.01  -0.00  -0.00
   5   1    -0.04   0.00   0.00     0.03  -0.00  -0.00    -0.01  -0.00  -0.00
   6   1    -0.01   0.03  -0.00    -0.01   0.02  -0.00    -0.00   0.01   0.00
   7   8    -0.00   0.00   0.00     0.00   0.00   0.00    -0.00   0.00  -0.00
   8   1     0.00  -0.00  -0.00    -0.00  -0.00  -0.01     0.00  -0.00   0.00
   9   6    -0.04   0.03  -0.00     0.02   0.03   0.02     0.23  -0.17  -0.00
  10   1     0.13   0.01  -0.00    -0.11   0.01   0.01    -0.66  -0.02   0.01
  11   1    -0.01   0.01  -0.00    -0.02  -0.03  -0.06     0.04  -0.02   0.00
  12   1     0.04  -0.12   0.00     0.04  -0.10   0.01    -0.20   0.63  -0.01
                     28                     29                     30
                        a                      a                      a 
 Frequencies --  3034.7030              3045.6449              3565.2360
 Red. masses --     1.6278                 1.5678                 1.8753
 Frc consts  --     0.0000                 0.0000                 0.0000
 IR Inten    --     0.2413                 0.1807                 0.1438
 Raman Activ --     0.0000                 0.0000                 0.0000
 Depolar     --     0.0000                 0.0000                 0.0000
 Atom AN      X      Y      Z        X      Y      Z        X      Y      Z
   1   6     0.02   0.03  -0.00    -0.01  -0.01  -0.01    -0.00  -0.00   0.00
   2   1     0.04  -0.10   0.00    -0.01   0.03  -0.00     0.00  -0.00  -0.00
   3   1    -0.11   0.00   0.00     0.03  -0.00  -0.00    -0.01  -0.00  -0.00
   4   6     0.00   0.00   0.00    -0.00  -0.00   0.00     0.00   0.00   0.00
   5   1    -0.02   0.00  -0.00     0.00  -0.00   0.00    -0.00  -0.00  -0.00
   6   1     0.01  -0.02  -0.00    -0.00   0.00   0.00    -0.00  -0.00  -0.00
   7   8    -0.00  -0.00  -0.00     0.00   0.00  -0.00     0.08   0.11   0.20
   8   1     0.00   0.00   0.00    -0.00  -0.00  -0.00    -0.31  -0.44  -0.81
   9   6     0.13   0.19   0.04    -0.06  -0.08  -0.20     0.00   0.00   0.00
  10   1    -0.66   0.03   0.02    -0.16  -0.01  -0.02     0.00  -0.00   0.00
  11   1    -0.05  -0.08  -0.16     0.33   0.46   0.76    -0.00  -0.00  -0.00
  12   1     0.25  -0.62   0.02     0.04  -0.16  -0.02    -0.00   0.00   0.00
