 Entering Gaussian System
 *********************************************
 Gaussian 98:
 frequency output generated by the xtb code
 *********************************************
                         Standard orientation:
 --------------------------------------------------------------------
  Center     Atomic     Atomic              Coordinates (Angstroms)
  Number     Number      Type              X           Y           Z
 --------------------------------------------------------------------
    1          6             0       -3.636318    0.236070    0.008257
    2          1             0       -3.288354   -0.797573    0.031955
    3          1             0       -4.726834    0.218960    0.031477
    4          6             0       -3.140201    0.938640    1.267286
    5          1             0       -2.039955    0.952474    1.275467
    6          1             0       -3.495150    1.980156    1.275445
    7          8             0       -3.632655    0.241372    2.392361
    8          1             0       -3.324934    0.676743    3.193498
    9          6             0       -3.146507    0.928651   -1.255375
   10          1             0       -2.059190    0.939008   -1.290182
   11          1             0       -3.513488    0.409109   -2.136607
   12          1             0       -3.499653    1.957060   -1.290532
 --------------------------------------------------------------------
     1 basis functions        1 primitive gaussians
     1 alpha electrons        1 beta electrons
 
 Harmonic frequencies (cm**-1), IR intensities (KM/Mole),
 Raman scattering activities (A**4/amu), Raman depolarization ratios,
 reduced masses (AMU), force constants (mDyne/A) and normal coordinates:
                      1                      2                      3
                        a                      a                      a 
 Frequencies --   103.4219               290.8077               222.9266
 Red. masses --    99.0000                99.0000                99.0000
 Frc consts  --    99.0000                99.0000                99.0000
 IR Inten    --    99.0000                99.0000                99.0000
 Raman Activ --     0.0000                 0.0000                 0.0000
 Depolar     --     0.0000                 0.0000                 0.0000
 Atom AN      X      Y      Z        X      Y      Z        X      Y      Z
   1   6    -0.30   0.21  -0.00    -0.08   0.06  -0.00     0.19  -0.14  -0.00
   2   1    -0.18   0.03   0.09    -0.08  -0.00  -0.01     0.13  -0.01  -0.01
   3   1    -0.09   0.16  -0.09    -0.02   0.08   0.01     0.06  -0.12   0.01
   4   6    -0.36   0.25  -0.00     0.10  -0.07  -0.00    -0.08   0.05  -0.00
   5   1    -0.10   0.23  -0.09     0.03  -0.04  -0.01    -0.02   0.11   0.03
   6   1    -0.25   0.02   0.09     0.05  -0.02   0.01    -0.11  -0.01  -0.03
   7   8     0.38  -0.27   0.00     0.20  -0.14   0.00    -0.02   0.01   0.00
   8   1     0.07  -0.05  -0.00    -0.77   0.54   0.00    -0.13   0.09  -0.00
   9   6     0.28  -0.19   0.00    -0.02   0.01   0.00    -0.04   0.03   0.00
  10   1     0.08  -0.21   0.06    -0.00   0.04   0.04    -0.02  -0.41  -0.30
  11   1     0.06  -0.04   0.00     0.04  -0.03  -0.00    -0.46   0.33  -0.00
  12   1     0.23  -0.01  -0.06    -0.04  -0.01  -0.04     0.38   0.16   0.30
                      4                      5                      6
                        a                      a                      a 
 Frequencies --   270.5144               439.8642               792.7036
 Red. masses --    99.0000                99.0000                99.0000
 Frc consts  --    99.0000                99.0000                99.0000
 IR Inten    --    99.0000                99.0000                99.0000
 Raman Activ --     0.0000                 0.0000                 0.0000
 Depolar     --     0.0000                 0.0000                 0.0000
 Atom AN      X      Y      Z        X      Y      Z        X      Y      Z
   1   6     0.23   0.33   0.20    -0.11  -0.16   0.25     0.20  -0.14   0.00
   2   1     0.06   0.09   0.12    -0.02  -0.04   0.13    -0.47  -0.21   0.01
   3   1     0.07   0.09   0.12    -0.03  -0.04   0.13     0.04   0.52  -0.01
   4   6     0.19   0.27   0.25     0.15   0.21  -0.19     0.09  -0.06  -0.00
   5   1     0.05   0.07   0.15     0.04   0.06  -0.07     0.01   0.29   0.15
   6   1     0.05   0.07   0.15     0.04   0.06  -0.07    -0.27  -0.11  -0.15
   7   8    -0.19  -0.27  -0.24     0.00   0.00  -0.62    -0.04   0.03   0.00
   8   1    -0.13  -0.19   0.04    -0.06  -0.09  -0.08     0.02  -0.01   0.00
   9   6    -0.16  -0.23  -0.24    -0.04  -0.05   0.49     0.04  -0.03   0.00
  10   1    -0.05  -0.07  -0.19    -0.01  -0.01   0.21    -0.00   0.21  -0.20
  11   1    -0.14  -0.20   0.05     0.05   0.07   0.07    -0.08   0.06  -0.00
  12   1    -0.05  -0.07  -0.19    -0.00  -0.01   0.21    -0.20  -0.07   0.20
                      7                      8                      9
                        a                      a                      a 
 Frequencies --  1502.6644              1505.6936               919.8389
 Red. masses --    99.0000                99.0000                99.0000
 Frc consts  --    99.0000                99.0000                99.0000
 IR Inten    --    99.0000                99.0000                99.0000
 Raman Activ --     0.0000                 0.0000                 0.0000
 Depolar     --     0.0000                 0.0000                 0.0000
 Atom AN      X      Y      Z        X      Y      Z        X      Y      Z
   1   6     0.04  -0.03  -0.00     0.05   0.07   0.05    -0.20  -0.28  -0.14
   2   1    -0.01  -0.01   0.02    -0.11  -0.03  -0.03    -0.05  -0.07   0.09
   3   1     0.01   0.01  -0.02     0.01  -0.12  -0.03    -0.05  -0.07   0.09
   4   6    -0.00   0.00   0.00     0.01   0.01  -0.02     0.23   0.33   0.18
   5   1     0.00  -0.00  -0.02    -0.00  -0.07   0.01     0.06   0.08   0.09
   6   1     0.00  -0.00   0.02    -0.07  -0.03   0.01     0.05   0.08   0.09
   7   8    -0.00   0.00  -0.00     0.01   0.01  -0.00    -0.03  -0.04   0.12
   8   1     0.00  -0.00  -0.00    -0.01  -0.01   0.01    -0.11  -0.16   0.15
   9   6     0.18  -0.12  -0.00     0.11   0.15   0.11    -0.05  -0.07  -0.34
  10   1     0.02   0.17   0.44     0.01  -0.62  -0.13    -0.00   0.03   0.21
  11   1    -0.58   0.41  -0.00     0.16   0.22  -0.18     0.23   0.32  -0.39
  12   1    -0.15  -0.08  -0.44    -0.59  -0.20  -0.13     0.03   0.01   0.21
                     10                     11                     12
                        a                      a                      a 
 Frequencies --   906.3017              1317.1665              1157.6578
 Red. masses --    99.0000                99.0000                99.0000
 Frc consts  --    99.0000                99.0000                99.0000
 IR Inten    --    99.0000                99.0000                99.0000
 Raman Activ --     0.0000                 0.0000                 0.0000
 Depolar     --     0.0000                 0.0000                 0.0000
 Atom AN      X      Y      Z        X      Y      Z        X      Y      Z
   1   6    -0.04   0.03  -0.00    -0.01  -0.01  -0.46    -0.29   0.20  -0.00
   2   1     0.02   0.01  -0.37    -0.00   0.01   0.48     0.18   0.14   0.12
   3   1    -0.00  -0.03   0.37     0.01   0.00   0.48    -0.07  -0.22  -0.12
   4   6     0.23  -0.16   0.00    -0.10  -0.14  -0.10     0.35  -0.25   0.00
   5   1     0.05   0.35   0.16    -0.03  -0.01   0.21     0.08   0.33  -0.27
   6   1    -0.31  -0.16  -0.16     0.00  -0.03   0.21    -0.29  -0.19   0.27
   7   8    -0.07   0.05   0.00     0.10   0.15  -0.01    -0.13   0.09  -0.00
   8   1     0.01  -0.01   0.00    -0.13  -0.19   0.18    -0.01   0.01  -0.00
   9   6    -0.14   0.10  -0.00     0.07   0.10   0.08     0.17  -0.12  -0.00
  10   1    -0.02  -0.24   0.29     0.01  -0.06  -0.01     0.03   0.15  -0.17
  11   1     0.13  -0.09  -0.00    -0.09  -0.12   0.15    -0.07   0.05  -0.00
  12   1     0.22   0.10  -0.29    -0.06  -0.01  -0.01    -0.13  -0.08   0.17
                     13                     14                     15
                        a                      a                      a 
 Frequencies --  1105.9121              1083.9752              1074.9977
 Red. masses --    99.0000                99.0000                99.0000
 Frc consts  --    99.0000                99.0000                99.0000
 IR Inten    --    99.0000                99.0000                99.0000
 Raman Activ --     0.0000                 0.0000                 0.0000
 Depolar     --     0.0000                 0.0000                 0.0000
 Atom AN      X      Y      Z        X      Y      Z        X      Y      Z
   1   6    -0.15  -0.21   0.38    -0.09  -0.13  -0.37    -0.22  -0.31   0.17
   2   1    -0.03  -0.05   0.21    -0.01  -0.03  -0.31    -0.07  -0.09  -0.08
   3   1    -0.04  -0.05   0.21    -0.03  -0.02  -0.31    -0.06  -0.09  -0.08
   4   6     0.11   0.16  -0.42     0.22   0.32  -0.04    -0.09  -0.13   0.51
   5   1     0.02   0.01  -0.17     0.05   0.07  -0.06    -0.01  -0.01   0.01
   6   1     0.00   0.02  -0.17     0.05   0.07  -0.06    -0.01  -0.02   0.01
   7   8    -0.14  -0.19   0.25    -0.03  -0.04   0.19     0.19   0.27  -0.35
   8   1    -0.04  -0.06   0.07    -0.20  -0.28   0.26    -0.11  -0.16   0.10
   9   6     0.21   0.30  -0.18    -0.00  -0.01   0.32     0.17   0.24  -0.17
  10   1     0.05   0.05  -0.22    -0.01  -0.05  -0.10     0.04   0.04  -0.22
  11   1    -0.05  -0.07   0.08    -0.14  -0.19   0.24    -0.06  -0.09   0.08
  12   1     0.03   0.06  -0.22    -0.04  -0.03  -0.10     0.02   0.05  -0.22
                     16                     17                     18
                        a                      a                      a 
 Frequencies --  1231.3319              1496.2897              1492.8719
 Red. masses --    99.0000                99.0000                99.0000
 Frc consts  --    99.0000                99.0000                99.0000
 IR Inten    --    99.0000                99.0000                99.0000
 Raman Activ --     0.0000                 0.0000                 0.0000
 Depolar     --     0.0000                 0.0000                 0.0000
 Atom AN      X      Y      Z        X      Y      Z        X      Y      Z
   1   6    -0.23   0.16  -0.00    -0.10  -0.14  -0.02     0.12   0.17  -0.02
   2   1     0.11   0.09  -0.42     0.41   0.13   0.01    -0.48  -0.15   0.01
   3   1    -0.05  -0.13   0.42    -0.01   0.43   0.01     0.02  -0.50   0.01
   4   6    -0.10   0.07   0.00     0.11   0.16   0.05     0.10   0.15  -0.00
   5   1    -0.03  -0.09   0.29     0.00  -0.52  -0.01     0.00  -0.43   0.03
   6   1     0.08   0.06  -0.29    -0.49  -0.17  -0.01    -0.41  -0.14   0.03
   7   8     0.07  -0.05   0.00     0.01   0.02  -0.02     0.02   0.02  -0.01
   8   1     0.01  -0.00  -0.00     0.00   0.01  -0.01    -0.00  -0.00   0.00
   9   6     0.28  -0.19   0.00     0.01   0.01  -0.02    -0.03  -0.04   0.00
  10   1     0.05   0.21  -0.23     0.00  -0.04   0.02    -0.00   0.14   0.01
  11   1    -0.11   0.08   0.00    -0.01  -0.01   0.01    -0.02  -0.03   0.03
  12   1    -0.18  -0.12   0.23    -0.04  -0.01   0.02     0.13   0.05   0.01
                     19                     20                     21
                        a                      a                      a 
 Frequencies --  1229.4022              1277.7021              1383.9950
 Red. masses --    99.0000                99.0000                99.0000
 Frc consts  --    99.0000                99.0000                99.0000
 IR Inten    --    99.0000                99.0000                99.0000
 Raman Activ --     0.0000                 0.0000                 0.0000
 Depolar     --     0.0000                 0.0000                 0.0000
 Atom AN      X      Y      Z        X      Y      Z        X      Y      Z
   1   6    -0.17  -0.24  -0.17    -0.17   0.12  -0.00    -0.02  -0.02   0.31
   2   1    -0.04  -0.06  -0.00     0.10   0.09   0.40     0.03   0.00  -0.22
   3   1    -0.04  -0.06  -0.00    -0.05  -0.12  -0.40    -0.01   0.03  -0.22
   4   6     0.15   0.22   0.07     0.13  -0.09   0.00    -0.05  -0.08  -0.44
   5   1     0.04   0.06   0.34     0.02   0.05   0.53    -0.02  -0.03   0.50
   6   1     0.04   0.05   0.34    -0.03  -0.04  -0.53    -0.02  -0.03   0.50
   7   8    -0.11  -0.15  -0.02     0.06  -0.04  -0.00     0.10   0.14  -0.00
   8   1     0.31   0.44  -0.39     0.02  -0.01  -0.00    -0.12  -0.17   0.16
   9   6     0.08   0.11   0.07    -0.04   0.03   0.00    -0.02  -0.03  -0.06
  10   1     0.01  -0.02  -0.11    -0.01  -0.02   0.03    -0.00   0.04   0.01
  11   1    -0.06  -0.09   0.12    -0.01   0.01   0.00     0.02   0.03  -0.04
  12   1    -0.02   0.01  -0.11     0.01   0.02  -0.03     0.04   0.01   0.01
                     22                     23                     24
                        a                      a                      a 
 Frequencies --  1414.7484              2849.3664              2990.0201
 Red. masses --    99.0000                99.0000                99.0000
 Frc consts  --    99.0000                99.0000                99.0000
 IR Inten    --    99.0000                99.0000                99.0000
 Raman Activ --     0.0000                 0.0000                 0.0000
 Depolar     --     0.0000                 0.0000                 0.0000
 Atom AN      X      Y      Z        X      Y      Z        X      Y      Z
   1   6     0.00   0.00   0.08     0.01  -0.00   0.00     0.24  -0.17   0.00
   2   1    -0.05  -0.02  -0.07    -0.01   0.04   0.00    -0.20   0.63  -0.01
   3   1    -0.00  -0.05  -0.07    -0.04  -0.00  -0.00    -0.66  -0.03   0.01
   4   6     0.01   0.02   0.01    -0.24   0.17   0.00     0.02  -0.01  -0.00
   5   1     0.01   0.02  -0.02     0.67   0.03   0.01    -0.04   0.00   0.00
   6   1     0.01   0.01  -0.02     0.20  -0.64  -0.01    -0.01   0.03  -0.00
   7   8    -0.01  -0.02   0.00    -0.01   0.00  -0.00    -0.00   0.00   0.00
   8   1     0.01   0.02  -0.02     0.00  -0.00  -0.00     0.00  -0.00  -0.00
   9   6     0.13   0.18  -0.38     0.00  -0.00   0.00    -0.04   0.03  -0.00
  10   1     0.03  -0.21   0.46    -0.01   0.00  -0.00     0.13   0.01  -0.00
  11   1    -0.25  -0.35   0.28     0.00  -0.00  -0.00    -0.01   0.01  -0.00
  12   1    -0.21  -0.04   0.46    -0.00   0.01   0.00     0.04  -0.12   0.00
                     25                     26                     27
                        a                      a                      a 
 Frequencies --  3002.2867              2882.7345              3030.8157
 Red. masses --    99.0000                99.0000                99.0000
 Frc consts  --    99.0000                99.0000                99.0000
 IR Inten    --    99.0000                99.0000                99.0000
 Raman Activ --     0.0000                 0.0000                 0.0000
 Depolar     --     0.0000                 0.0000                 0.0000
 Atom AN      X      Y      Z        X      Y      Z        X      Y      Z
   1   6    -0.12  -0.17   0.01     0.00   0.00  -0.00     0.05  -0.04   0.00
   2   1    -0.25   0.63  -0.01     0.01  -0.03   0.00    -0.04   0.12  -0.00
   3   1     0.68  -0.02  -0.01    -0.03   0.00   0.00    -0.13  -0.00   0.00
   4   6    -0.01  -0.01  -0.00    -0.11  -0.16  -0.02     0.01  -0.00  -0.00
   5   1     0.03  -0.00  -0.00     0.69  -0.04   0.00    -0.01  -0.00  -0.00
   6   1    -0.01   0.02  -0.00    -0.26   0.64   0.00    -0.00   0.01   0.00
   7   8     0.00   0.00   0.00    -0.01  -0.01   0.02    -0.00   0.00  -0.00
   8   1    -0.00  -0.00  -0.01    -0.00  -0.00   0.00     0.00  -0.00   0.00
   9   6     0.02   0.03   0.02     0.00   0.01   0.00     0.23  -0.17  -0.00
  10   1    -0.11   0.01   0.01    -0.01   0.00  -0.00    -0.66  -0.02   0.01
  11   1    -0.02  -0.03  -0.06    -0.00  -0.00  -0.01     0.04  -0.02   0.00
  12   1     0.04  -0.10   0.01     0.00  -0.01  -0.00    -0.20   0.63  -0.01
                     28                     29                     30
                        a                      a                      a 
 Frequencies --  3034.7030              3045.6449              3565.2360
 Red. masses --    99.0000                99.0000                99.0000
 Frc consts  --    99.0000                99.0000                99.0000
 IR Inten    --    99.0000                99.0000                99.0000
 Raman Activ --     0.0000                 0.0000                 0.0000
 Depolar     --     0.0000                 0.0000                 0.0000
 Atom AN      X      Y      Z        X      Y      Z        X      Y      Z
   1   6     0.02   0.03  -0.00    -0.01  -0.01  -0.01    -0.00  -0.00   0.00
   2   1     0.04  -0.10   0.00    -0.01   0.03  -0.00     0.00  -0.00  -0.00
   3   1    -0.11   0.00   0.00     0.03  -0.00  -0.00    -0.01  -0.00  -0.00
   4   6     0.00   0.00   0.00    -0.00  -0.00   0.00     0.00   0.00   0.00
   5   1    -0.02   0.00  -0.00     0.00  -0.00   0.00    -0.00  -0.00  -0.00
   6   1     0.01  -0.02  -0.00    -0.00   0.00   0.00    -0.00  -0.00  -0.00
   7   8    -0.00  -0.00  -0.00     0.00   0.00  -0.00     0.08   0.11   0.20
   8   1     0.00   0.00   0.00    -0.00  -0.00  -0.00    -0.31  -0.44  -0.81
   9   6     0.13   0.19   0.04    -0.06  -0.08  -0.20     0.00   0.00   0.00
  10   1    -0.66   0.03   0.02    -0.16  -0.01  -0.02     0.00  -0.00   0.00
  11   1    -0.05  -0.08  -0.16     0.33   0.46   0.76    -0.00  -0.00  -0.00
  12   1     0.25  -0.62   0.02     0.04  -0.16  -0.02    -0.00   0.00   0.00
