 Entering Gaussian System
 *********************************************
 Gaussian 98:
 frequency output generated by the xtb code
 *********************************************
                         Standard orientation:
 --------------------------------------------------------------------
  Center     Atomic     Atomic              Coordinates (Angstroms)
  Number     Number      Type              X           Y           Z
 --------------------------------------------------------------------
    1          6             0        1.353537   -1.328852    0.039609
    2          6             0        2.884568   -1.332671    0.044854
    3          6             0        2.885809    0.722182    1.122325
    4          6             0        1.355037    0.727435    1.114301
    5          1             0        3.244416   -1.854196    0.945038
    6          1             0        3.275925   -1.825138   -0.846015
    7          1             0        0.993652   -0.885799   -0.901687
    8          1             0        0.961148   -2.341165    0.142584
    9          1             0        3.243261    0.276229    2.063119
   10          1             0        3.280116    1.734053    1.022429
   11          1             0        0.961726    1.222238    2.003028
   12          1             0        0.997624    1.246833    0.211969
   13          8             0        0.853432   -0.592401    1.135707
   14          8             0        3.386156   -0.012794    0.025290
 --------------------------------------------------------------------
     1 basis functions        1 primitive gaussians
     1 alpha electrons        1 beta electrons
 
 Harmonic frequencies (cm**-1), IR intensities (KM/Mole),
 Raman scattering activities (A**4/amu), Raman depolarization ratios,
 reduced masses (AMU), force constants (mDyne/A) and normal coordinates:
                      1                      2                      3
                        a                      a                      a 
 Frequencies --   222.9153               283.7039               397.4347
 Red. masses --    99.0000                99.0000                99.0000
 Frc consts  --    99.0000                99.0000                99.0000
 IR Inten    --    99.0000                99.0000                99.0000
 Raman Activ --     0.0000                 0.0000                 0.0000
 Depolar     --     0.0000                 0.0000                 0.0000
 Atom AN      X      Y      Z        X      Y      Z        X      Y      Z
   1   6     0.02   0.20  -0.26     0.12  -0.19   0.09    -0.01  -0.22   0.10
   2   6    -0.02  -0.10   0.31     0.12   0.04   0.21     0.01  -0.04  -0.23
   3   6     0.02   0.19  -0.26     0.12  -0.19   0.09     0.02   0.22  -0.10
   4   6    -0.02  -0.10   0.31     0.12   0.04   0.21    -0.02   0.04   0.24
   5   1    -0.13   0.07   0.20     0.06   0.15   0.13     0.09  -0.16  -0.19
   6   1     0.09  -0.15   0.20     0.07  -0.08   0.13    -0.08   0.12  -0.18
   7   1     0.13   0.21  -0.05     0.06  -0.20  -0.05    -0.09  -0.24  -0.02
   8   1    -0.09   0.08  -0.23     0.07  -0.06   0.14     0.08  -0.08   0.20
   9   1     0.13   0.21  -0.05     0.06  -0.20  -0.05     0.09   0.24   0.02
  10   1    -0.09   0.08  -0.23     0.07  -0.06   0.14    -0.08   0.08  -0.20
  11   1     0.09  -0.15   0.20     0.07  -0.08   0.13     0.08  -0.12   0.18
  12   1    -0.13   0.07   0.20     0.06   0.15   0.13    -0.09   0.16   0.19
  13   8     0.00  -0.13  -0.07    -0.28   0.18  -0.34    -0.26   0.12  -0.24
  14   8    -0.00  -0.13  -0.07    -0.28   0.18  -0.35     0.26  -0.13   0.24
                      4                      5                      6
                        a                      a                      a 
 Frequencies --   445.7624               463.0382               608.7540
 Red. masses --    99.0000                99.0000                99.0000
 Frc consts  --    99.0000                99.0000                99.0000
 IR Inten    --    99.0000                99.0000                99.0000
 Raman Activ --     0.0000                 0.0000                 0.0000
 Depolar     --     0.0000                 0.0000                 0.0000
 Atom AN      X      Y      Z        X      Y      Z        X      Y      Z
   1   6     0.04  -0.19  -0.18    -0.30  -0.22  -0.14    -0.15  -0.11  -0.14
   2   6    -0.04  -0.26  -0.06    -0.30   0.24   0.10    -0.15   0.18   0.01
   3   6    -0.04   0.19   0.18     0.30   0.22   0.14    -0.15  -0.10  -0.14
   4   6     0.04   0.26   0.06     0.30  -0.24  -0.10    -0.15   0.18   0.01
   5   1    -0.01  -0.09  -0.03    -0.19   0.12   0.10    -0.23   0.15   0.14
   6   1     0.07   0.02  -0.03     0.02   0.02   0.11     0.09  -0.10   0.15
   7   1     0.01  -0.08  -0.06    -0.19  -0.15  -0.04    -0.23  -0.20  -0.04
   8   1    -0.07  -0.01   0.04     0.02  -0.10   0.05     0.09  -0.06   0.17
   9   1    -0.01   0.08   0.06     0.19   0.15   0.04    -0.23  -0.20  -0.04
  10   1     0.07   0.01  -0.03    -0.02   0.10  -0.05     0.09  -0.07   0.17
  11   1    -0.07  -0.02   0.03    -0.02  -0.02  -0.11     0.09  -0.10   0.15
  12   1     0.01   0.09   0.03     0.19  -0.12  -0.10    -0.23   0.15   0.14
  13   8     0.54   0.09  -0.16    -0.00  -0.17  -0.09     0.34  -0.01   0.01
  14   8    -0.54  -0.09   0.16     0.00   0.17   0.09     0.34  -0.01   0.01
                      7                      8                      9
                        a                      a                      a 
 Frequencies --   860.8364               879.6091              1069.7990
 Red. masses --    99.0000                99.0000                99.0000
 Frc consts  --    99.0000                99.0000                99.0000
 IR Inten    --    99.0000                99.0000                99.0000
 Raman Activ --     0.0000                 0.0000                 0.0000
 Depolar     --     0.0000                 0.0000                 0.0000
 Atom AN      X      Y      Z        X      Y      Z        X      Y      Z
   1   6    -0.13  -0.19   0.14    -0.20  -0.28  -0.16    -0.16   0.20  -0.23
   2   6    -0.13  -0.01   0.24     0.20  -0.30  -0.14     0.16  -0.08   0.30
   3   6     0.13   0.19  -0.14     0.20   0.28   0.17    -0.16   0.20  -0.23
   4   6     0.13   0.01  -0.24    -0.20   0.30   0.14     0.16  -0.08   0.30
   5   1     0.21  -0.11  -0.11     0.01   0.02   0.04     0.11  -0.24  -0.08
   6   1    -0.21   0.18  -0.11     0.17  -0.13   0.04    -0.04   0.21  -0.09
   7   1     0.21   0.15   0.03    -0.01   0.04  -0.00    -0.11  -0.20  -0.15
   8   1    -0.21  -0.01  -0.21    -0.17  -0.04  -0.13     0.04   0.04   0.22
   9   1    -0.21  -0.15  -0.03     0.01  -0.04   0.00    -0.11  -0.20  -0.15
  10   1     0.21   0.01   0.21     0.17   0.04   0.14     0.04   0.04   0.22
  11   1     0.21  -0.18   0.11    -0.17   0.13  -0.04    -0.04   0.21  -0.09
  12   1    -0.21   0.11   0.11    -0.01  -0.02  -0.04     0.11  -0.24  -0.08
  13   8     0.00  -0.16  -0.08    -0.22  -0.10   0.19    -0.00  -0.06  -0.03
  14   8     0.00   0.16   0.08     0.23   0.10  -0.19    -0.00  -0.06  -0.03
                     10                     11                     12
                        a                      a                      a 
 Frequencies --   929.9636              1445.1019              1111.6787
 Red. masses --    99.0000                99.0000                99.0000
 Frc consts  --    99.0000                99.0000                99.0000
 IR Inten    --    99.0000                99.0000                99.0000
 Raman Activ --     0.0000                 0.0000                 0.0000
 Depolar     --     0.0000                 0.0000                 0.0000
 Atom AN      X      Y      Z        X      Y      Z        X      Y      Z
   1   6     0.13  -0.09  -0.22    -0.09  -0.05  -0.07    -0.10   0.14  -0.28
   2   6     0.13   0.24  -0.05    -0.09   0.09   0.00     0.10  -0.15   0.27
   3   6     0.13  -0.09  -0.23     0.09   0.06   0.08     0.07  -0.13   0.30
   4   6     0.13   0.24  -0.05     0.09  -0.10  -0.00    -0.07   0.17  -0.28
   5   1    -0.07   0.01   0.01     0.14  -0.24  -0.20     0.14  -0.17  -0.07
   6   1     0.22   0.16   0.01     0.15  -0.22   0.20    -0.25  -0.01  -0.07
   7   1    -0.07  -0.02  -0.00     0.14   0.30   0.08    -0.14  -0.15  -0.10
   8   1     0.23  -0.10  -0.13     0.15  -0.04   0.30     0.24  -0.06   0.03
   9   1    -0.07  -0.02  -0.00    -0.14  -0.30  -0.09     0.13   0.16   0.11
  10   1     0.23  -0.10  -0.13    -0.15   0.04  -0.30    -0.24   0.06  -0.04
  11   1     0.22   0.16   0.01    -0.15   0.23  -0.20     0.24   0.01   0.07
  12   1    -0.07   0.01   0.01    -0.14   0.24   0.20    -0.13   0.18   0.07
  13   8    -0.30  -0.14   0.27    -0.00  -0.05  -0.02    -0.01  -0.12   0.18
  14   8    -0.30  -0.14   0.27    -0.00   0.04   0.02     0.01   0.08  -0.20
                     13                     14                     15
                        a                      a                      a 
 Frequencies --  1449.6131               928.0651              1451.2646
 Red. masses --    99.0000                99.0000                99.0000
 Frc consts  --    99.0000                99.0000                99.0000
 IR Inten    --    99.0000                99.0000                99.0000
 Raman Activ --     0.0000                 0.0000                 0.0000
 Depolar     --     0.0000                 0.0000                 0.0000
 Atom AN      X      Y      Z        X      Y      Z        X      Y      Z
   1   6     0.08   0.07   0.09    -0.29  -0.17  -0.08     0.09   0.07   0.08
   2   6     0.08  -0.12  -0.01     0.30  -0.16  -0.09    -0.09   0.10   0.01
   3   6     0.08   0.07   0.09    -0.29  -0.17  -0.08     0.09   0.07   0.08
   4   6     0.08  -0.12  -0.01     0.30  -0.16  -0.09    -0.09   0.10   0.01
   5   1    -0.14   0.24   0.21     0.04   0.04   0.04     0.16  -0.22  -0.19
   6   1    -0.15   0.23  -0.20     0.28   0.01   0.04     0.15  -0.21   0.20
   7   1    -0.14  -0.30  -0.08    -0.04   0.05   0.01    -0.16  -0.30  -0.08
   8   1    -0.15   0.03  -0.29    -0.28   0.04  -0.02    -0.16   0.04  -0.29
   9   1    -0.14  -0.30  -0.08    -0.04   0.05   0.01    -0.17  -0.30  -0.08
  10   1    -0.14   0.04  -0.29    -0.28   0.04  -0.02    -0.16   0.05  -0.30
  11   1    -0.15   0.23  -0.20     0.28   0.01   0.04     0.16  -0.21   0.20
  12   1    -0.14   0.24   0.21     0.04   0.04   0.04     0.16  -0.23  -0.20
  13   8     0.01  -0.01   0.02    -0.00   0.25   0.13     0.00   0.03   0.01
  14   8     0.01  -0.01   0.01    -0.00   0.25   0.14     0.00   0.03   0.01
                     16                     17                     18
                        a                      a                      a 
 Frequencies --  1455.1329              1044.7425              1267.6121
 Red. masses --    99.0000                99.0000                99.0000
 Frc consts  --    99.0000                99.0000                99.0000
 IR Inten    --    99.0000                99.0000                99.0000
 Raman Activ --     0.0000                 0.0000                 0.0000
 Depolar     --     0.0000                 0.0000                 0.0000
 Atom AN      X      Y      Z        X      Y      Z        X      Y      Z
   1   6    -0.08  -0.08  -0.10     0.35  -0.16  -0.05    -0.02  -0.08   0.14
   2   6     0.08  -0.12  -0.01    -0.35  -0.13  -0.11    -0.02  -0.07   0.15
   3   6     0.08   0.08   0.09    -0.34   0.16   0.05    -0.02  -0.08   0.14
   4   6    -0.08   0.12   0.01     0.35   0.13   0.10    -0.02  -0.07   0.15
   5   1    -0.15   0.24   0.20    -0.13   0.01   0.01    -0.22  -0.26  -0.02
   6   1    -0.16   0.21  -0.20    -0.19  -0.20   0.02     0.14   0.22  -0.03
   7   1     0.15   0.30   0.08     0.13   0.02   0.00    -0.22   0.17   0.20
   8   1     0.16  -0.05   0.29     0.19  -0.10  -0.17     0.14  -0.10  -0.19
   9   1    -0.15  -0.29  -0.08    -0.13  -0.02  -0.00    -0.22   0.17   0.20
  10   1    -0.16   0.04  -0.29    -0.19   0.10   0.17     0.14  -0.10  -0.19
  11   1     0.16  -0.21   0.20     0.19   0.19  -0.02     0.14   0.22  -0.03
  12   1     0.15  -0.23  -0.20     0.13  -0.01  -0.01    -0.22  -0.26  -0.02
  13   8    -0.01   0.01  -0.01    -0.11  -0.04   0.08     0.08   0.13  -0.24
  14   8     0.01  -0.01   0.01     0.11   0.04  -0.08     0.08   0.13  -0.24
                     19                     20                     21
                        a                      a                      a 
 Frequencies --  1175.4784              1026.4605              1113.8301
 Red. masses --    99.0000                99.0000                99.0000
 Frc consts  --    99.0000                99.0000                99.0000
 IR Inten    --    99.0000                99.0000                99.0000
 Raman Activ --     0.0000                 0.0000                 0.0000
 Depolar     --     0.0000                 0.0000                 0.0000
 Atom AN      X      Y      Z        X      Y      Z        X      Y      Z
   1   6    -0.01   0.01   0.15     0.09   0.35   0.11    -0.28   0.11   0.24
   2   6    -0.01  -0.13   0.08     0.09  -0.29  -0.23     0.28   0.26  -0.04
   3   6     0.01  -0.01  -0.15     0.09   0.35   0.11    -0.29   0.12   0.21
   4   6     0.01   0.13  -0.08     0.09  -0.29  -0.23     0.29   0.24  -0.02
   5   1    -0.23  -0.25  -0.01    -0.18  -0.01   0.06     0.11   0.12   0.02
   6   1     0.24   0.23  -0.02     0.16  -0.18   0.06     0.01  -0.06   0.03
   7   1    -0.23   0.15   0.20    -0.18  -0.04   0.05    -0.11   0.09   0.09
   8   1     0.24  -0.12  -0.20     0.16   0.05   0.18    -0.01  -0.01  -0.07
   9   1     0.23  -0.15  -0.20    -0.18  -0.04   0.05    -0.12   0.07   0.08
  10   1    -0.24   0.12   0.20     0.16   0.05   0.18     0.01  -0.02  -0.06
  11   1    -0.24  -0.23   0.02     0.16  -0.18   0.06    -0.01  -0.06   0.02
  12   1     0.23   0.25   0.01    -0.18  -0.01   0.06     0.12   0.10   0.01
  13   8    -0.00  -0.03  -0.01    -0.15  -0.01   0.01     0.00  -0.34  -0.19
  14   8    -0.00   0.03   0.01    -0.15  -0.01   0.01    -0.00  -0.35  -0.17
                     22                     23                     24
                        a                      a                      a 
 Frequencies --  1096.1312              1270.5046              1198.5591
 Red. masses --    99.0000                99.0000                99.0000
 Frc consts  --    99.0000                99.0000                99.0000
 IR Inten    --    99.0000                99.0000                99.0000
 Raman Activ --     0.0000                 0.0000                 0.0000
 Depolar     --     0.0000                 0.0000                 0.0000
 Atom AN      X      Y      Z        X      Y      Z        X      Y      Z
   1   6     0.06  -0.24  -0.21    -0.17  -0.04   0.09    -0.12  -0.02  -0.12
   2   6     0.07   0.31   0.08     0.17   0.05  -0.09     0.12  -0.12   0.05
   3   6    -0.07   0.23   0.21     0.17   0.04  -0.09    -0.12  -0.02  -0.12
   4   6    -0.06  -0.30  -0.07    -0.17  -0.05   0.09     0.12  -0.12   0.05
   5   1     0.03  -0.04  -0.04     0.16   0.16   0.03     0.16   0.06   0.00
   6   1     0.03   0.14  -0.02    -0.21  -0.27   0.02    -0.31  -0.26  -0.01
   7   1     0.03   0.05   0.01    -0.17   0.12   0.12    -0.16   0.03   0.05
   8   1     0.03  -0.06  -0.13     0.21  -0.14  -0.24     0.31  -0.16  -0.21
   9   1    -0.03  -0.05  -0.01     0.16  -0.12  -0.12    -0.16   0.03   0.04
  10   1    -0.03   0.06   0.13    -0.21   0.14   0.24     0.31  -0.16  -0.21
  11   1    -0.03  -0.14   0.02     0.21   0.27  -0.02    -0.31  -0.26  -0.01
  12   1    -0.03   0.04   0.04    -0.17  -0.17  -0.03     0.16   0.06   0.00
  13   8     0.00   0.44   0.23     0.12   0.11  -0.21     0.00   0.20   0.11
  14   8     0.00  -0.44  -0.23    -0.12  -0.11   0.21     0.00   0.20   0.11
                     25                     26                     27
                        a                      a                      a 
 Frequencies --  1300.0292              1311.9651              1327.0167
 Red. masses --    99.0000                99.0000                99.0000
 Frc consts  --    99.0000                99.0000                99.0000
 IR Inten    --    99.0000                99.0000                99.0000
 Raman Activ --     0.0000                 0.0000                 0.0000
 Depolar     --     0.0000                 0.0000                 0.0000
 Atom AN      X      Y      Z        X      Y      Z        X      Y      Z
   1   6    -0.17   0.11   0.06     0.20  -0.12  -0.11    -0.17   0.00   0.11
   2   6    -0.17  -0.11  -0.06     0.20   0.16   0.03     0.17   0.09  -0.06
   3   6     0.17  -0.11  -0.06     0.20  -0.11  -0.11    -0.18   0.00   0.11
   4   6     0.17   0.11   0.06     0.20   0.15   0.03     0.18   0.09  -0.06
   5   1     0.25   0.20   0.00    -0.23  -0.16   0.00    -0.36  -0.24  -0.00
   6   1     0.27   0.15   0.02    -0.28  -0.17  -0.02    -0.09  -0.11  -0.00
   7   1     0.25  -0.12  -0.17    -0.23   0.09   0.14     0.36  -0.14  -0.20
   8   1     0.27  -0.10  -0.11    -0.28   0.11   0.12     0.09  -0.06  -0.09
   9   1    -0.26   0.12   0.17    -0.23   0.09   0.13     0.36  -0.14  -0.20
  10   1    -0.27   0.11   0.11    -0.28   0.11   0.12     0.09  -0.06  -0.09
  11   1    -0.27  -0.15  -0.02    -0.28  -0.16  -0.02    -0.09  -0.11  -0.00
  12   1    -0.26  -0.21  -0.00    -0.22  -0.16   0.00    -0.36  -0.24  -0.00
  13   8    -0.00   0.07   0.04    -0.09  -0.01   0.01    -0.00   0.06   0.03
  14   8    -0.00  -0.07  -0.04    -0.09  -0.00   0.01     0.00   0.06   0.03
                     28                     29                     30
                        a                      a                      a 
 Frequencies --  1350.3332              2863.3343              2876.1628
 Red. masses --    99.0000                99.0000                99.0000
 Frc consts  --    99.0000                99.0000                99.0000
 IR Inten    --    99.0000                99.0000                99.0000
 Raman Activ --     0.0000                 0.0000                 0.0000
 Depolar     --     0.0000                 0.0000                 0.0000
 Atom AN      X      Y      Z        X      Y      Z        X      Y      Z
   1   6    -0.20   0.01   0.13    -0.05   0.08  -0.13     0.05  -0.06   0.11
   2   6     0.20   0.11  -0.07     0.05  -0.06   0.14     0.05  -0.06   0.12
   3   6     0.20  -0.01  -0.13     0.02  -0.02   0.04    -0.04   0.06  -0.10
   4   6    -0.20  -0.11   0.07    -0.02   0.02  -0.04    -0.04   0.05  -0.10
   5   1    -0.35  -0.22   0.00    -0.21   0.31  -0.54    -0.17   0.24  -0.43
   6   1    -0.10  -0.10  -0.01     0.02  -0.02   0.00     0.01  -0.01   0.01
   7   1     0.35  -0.12  -0.18     0.22  -0.27   0.57    -0.17   0.21  -0.44
   8   1     0.10  -0.06  -0.08    -0.02  -0.01  -0.02     0.01  -0.00   0.01
   9   1    -0.35   0.12   0.18    -0.06   0.07  -0.16     0.14  -0.19   0.38
  10   1    -0.10   0.06   0.08     0.00  -0.01   0.01    -0.01  -0.00  -0.01
  11   1     0.10   0.10   0.01    -0.00   0.00  -0.01    -0.01   0.01  -0.01
  12   1     0.35   0.22  -0.00     0.06  -0.09   0.15     0.14  -0.21   0.37
  13   8     0.08  -0.01   0.03     0.00   0.00  -0.01    -0.00   0.01   0.01
  14   8    -0.08   0.02  -0.03    -0.00  -0.01   0.01    -0.00  -0.01  -0.00
                     31                     32                     33
                        a                      a                      a 
 Frequencies --  2863.9841              2879.9833              2996.9748
 Red. masses --    99.0000                99.0000                99.0000
 Frc consts  --    99.0000                99.0000                99.0000
 IR Inten    --    99.0000                99.0000                99.0000
 Raman Activ --     0.0000                 0.0000                 0.0000
 Depolar     --     0.0000                 0.0000                 0.0000
 Atom AN      X      Y      Z        X      Y      Z        X      Y      Z
   1   6    -0.01   0.03  -0.04    -0.04   0.05  -0.10    -0.05  -0.12   0.02
   2   6     0.01  -0.02   0.04    -0.04   0.05  -0.10    -0.05   0.06   0.12
   3   6    -0.05   0.08  -0.13    -0.05   0.06  -0.11     0.04   0.10  -0.01
   4   6     0.05  -0.06   0.14    -0.05   0.06  -0.11     0.05  -0.05  -0.10
   5   1    -0.06   0.08  -0.15     0.14  -0.21   0.37    -0.00   0.00   0.02
   6   1     0.01  -0.01  -0.01    -0.00   0.00  -0.02     0.19  -0.24  -0.44
   7   1     0.06  -0.08   0.15     0.14  -0.18   0.38    -0.00  -0.02   0.01
   8   1    -0.01  -0.01  -0.00    -0.00   0.01  -0.01     0.18   0.46  -0.05
   9   1     0.22  -0.27   0.56     0.16  -0.21   0.44     0.00   0.02  -0.01
  10   1    -0.02  -0.01  -0.02    -0.00   0.01  -0.02    -0.15  -0.39   0.04
  11   1     0.02  -0.02   0.00    -0.01   0.00  -0.02    -0.17   0.21   0.39
  12   1    -0.22   0.31  -0.54     0.16  -0.24   0.42     0.00  -0.00  -0.02
  13   8    -0.00  -0.01   0.00     0.00   0.01  -0.01    -0.00  -0.01  -0.01
  14   8     0.00  -0.01  -0.01     0.00   0.01  -0.01     0.00   0.01   0.01
                     34                     35                     36
                        a                      a                      a 
 Frequencies --  3001.5429              2997.4032              2996.3361
 Red. masses --    99.0000                99.0000                99.0000
 Frc consts  --    99.0000                99.0000                99.0000
 IR Inten    --    99.0000                99.0000                99.0000
 Raman Activ --     0.0000                 0.0000                 0.0000
 Depolar     --     0.0000                 0.0000                 0.0000
 Atom AN      X      Y      Z        X      Y      Z        X      Y      Z
   1   6     0.05   0.12  -0.01    -0.05  -0.12   0.01     0.04   0.11  -0.02
   2   6    -0.05   0.06   0.10     0.04  -0.06  -0.10     0.04  -0.05  -0.10
   3   6     0.05   0.12  -0.01     0.05   0.13  -0.01     0.05   0.12  -0.02
   4   6    -0.05   0.06   0.10    -0.04   0.06   0.09     0.05  -0.06  -0.12
   5   1     0.00  -0.01   0.03     0.00  -0.00  -0.02     0.01  -0.01  -0.01
   6   1     0.17  -0.22  -0.40    -0.16   0.21   0.38    -0.15   0.19   0.36
   7   1    -0.00   0.02  -0.02    -0.00  -0.02   0.01     0.01   0.01   0.00
   8   1    -0.17  -0.45   0.05     0.17   0.45  -0.05    -0.16  -0.43   0.05
   9   1    -0.00   0.02  -0.02     0.00   0.02  -0.01     0.01   0.01   0.00
  10   1    -0.17  -0.45   0.05    -0.19  -0.49   0.05    -0.18  -0.46   0.05
  11   1     0.17  -0.21  -0.39     0.16  -0.20  -0.36    -0.19   0.24   0.44
  12   1     0.00  -0.01   0.03    -0.00   0.00   0.02     0.01  -0.01  -0.01
  13   8    -0.00   0.01   0.00     0.00  -0.00   0.00    -0.00  -0.00  -0.00
  14   8     0.00   0.01   0.00    -0.00   0.00  -0.00     0.00   0.00   0.00
