 
        ______________________________________
       |                                      |
       |           ==================         |
       |                 x T B                |
       |           ==================         |
       |               S. Grimme              |
       |        Universitaet Bonn, MCTC       |
       |         2015-18, Version 5.8.1       |
       |      Sun May  6 11:39:08 CEST 2018   |
       |______________________________________|
 
        This code comes without any warranty
        for non-commercial, academia use only.
        Preliminary GFN2 test version.
        Test license to: Dow Chemical Company
        Cite GFN-xTB work as:
        S. Grimme, C. Bannwarth, P. Shushkov
        JCTC, 13 (2017) 1989-2009
        for GFN2:
        C. Bannwarth, S. Ehlert, S. Grimme
        to be published.
        sTDA-xTB:
        S. Grimme  &  C. Bannwarth, JCP 145 (2016) 054103
        in the mass-spec context additionally:
        V. Asgeirsson, C.Bauer, S. Grimme, Chem. Sci. 8 (2017) 4879
 
        with help from
        P. Shushkov, G. Brandenburg, S. Dohm, J. Pisarek,
        F. März, M. Checinski, S. Ehrlich, S. Spicher, 
        P. Pracht, E. Caldeweyher, S. Ehlert, and C. Bannwarth.
 
        usage        :
        xtb <coord_file> [options]
        where <coord_file> is a valid file of TM)
        (*coord, Bohr) or xmol (*xyz, Angstroem)
        format.

        options:
        -chrg <int>   : molecular charge
        -uhf  <int>   : # of unpaired electrons(=2*S)
        -nox          : skip second, extended part in sTDA-xTB
        -pop          : do population analysis
                      : (default for -nox)
        -mowr <real>  : cut MO write above (def.3 Eh)
        -molden       : write formatted molden file
        -parx <file>  : read parameters for sTDA-xTB
                        calc (def:~/.param_stda2.xtb)
        -parv <file>  : read parameters for vTB part in
                        sTDA-xTB (def: ~/.param_stda1.xtb)
        -xtemp <real> : el. temp for xTB (def. 0 K)
        -etemp <real> : el. temp for GFN (def. 300 K)
        -fod          : calculate the FOD and write
                        molden.input file with
                        appropriate occupations
                        for plotting. Def. T=12500 K
 
        -gfn1         : use GFN-xTB
        -gfn2         : use GFN2-xTB
        -gfn2d3       : GFN2-xTB with D3 instead of D4
        -grad         : GFNn-xTB gradient
        -acc <real>   : GFNn-xTB accuracy (def. 1.0)
        -opt [level]  : optimize at GFNn-xTB
                      : level=crude,vloose,loose,
                      :       tight,vtight
        -hess         : compute Hessian at GFNn-xTB
        -ohess        : optimize and compute Hessian
        -omd          : optimize and do MD
        -siman        : conformational search
        -screen       : opt. loop over ensemble
        -gmd          : annealed MD for GMD procedure
        -modef        : vib mode following
        -gbsa [string1] [string2]
                        use GBSA implicit solvent
                        for solvent [string1] and
                        solvation state [string2]=
                        reference, bar1M (default=1M)
        additional GFN/opt/MD/siman options read from
        $XTBHOME/.xtbrc or $set in coordinate file
 
       spin and charge state information can be on:
       <.CHRG> (charge) and <.UHF> (=nalpha-nbeta)
       -uhf and -chrg override the file info.
       useful machine settings:
       setenv MKL_NUM_THREADS <NCORE_ON_YOUR_MACHINE>
       setenv OMP_STACKSIZE 500m
       limit stacksize unlimited
 
       total energies in Eh, gaps/HL energies in eV
       please read REVISION and HOWTO files carefully
          72  days left until this code expires
 =============================
  # OMP threads =           2
 =============================
 
 xtbhome directory:/home/ua25450/dftb/
 
 argument            1 :-ohess
 
 name of molecule           :
 comment line               :
 number of atoms            :    17
 number of electrons        :    32
 charge                     :  0
 spin                       : 0.0
 first test random number   :  0.3797
 
 
 -----------------------------------------
  G F N (Geometry, Frequency, Non-covalent)
        parametrization, gfnver=           3
     D4 dispersion model
 /home/ua25450/dftb/.param_gfn2.xtb
 -----------------------------------------
      method parameters     
 k(s)        :  1.8500
 k(p)        :  2.2300
 k(d)        :  2.2300
 k(f)        :  2.0000
 kEN (H0ij)  : -2.0000
 D3 a1       :  0.5200
 D3 a2       :  5.0000
 D3 s8       :  2.7000
 D3atm       :  5.0000
 alphaj      :  2.0000
 
     -------------------------
     ! NO SOLVENT MODEL USED !
     -------------------------
 
 doing EN charges ...
 sum q :  0.7771561D-15
 point charge moment (au)
     X       Y       Z   
   0.0004  -0.0042  -0.0018  total (Debye):    0.012
 
            Z     q(EN)     CN     RAES       Cart. coordinates
     1  C   4.0   -0.13    4.09    3.78    -5.46151    -0.41784     0.06703
     2  H   1.0    0.05    1.00    1.43    -4.85336    -2.38172     0.02227
     3  H   1.0    0.05    1.00    1.43    -4.83576     0.49261    -1.66643
     4  H   1.0    0.05    1.00    1.43    -7.51632    -0.37734     0.11295
     5  C   4.0   -0.05    4.10    3.79    -4.35733     0.92085     2.37508
     6  H   1.0    0.04    1.03    1.43    -5.02030     2.88363     2.37249
     7  C   4.0   -0.09    4.12    3.84    -5.29769    -0.35591     4.79878
     8  H   1.0    0.04    1.01    1.43    -7.35312    -0.52831     4.69290
     9  H   1.0    0.04    1.01    1.43    -4.51812    -2.26527     4.90060
    10  C   4.0   -0.13    4.01    3.64    -4.61861     1.08338     7.20042
    11  H   1.0    0.04    1.00    1.43    -5.47457     0.17890     8.83632
    12  H   1.0    0.05    1.00    1.43    -2.58573     1.12874     7.49046
    13  C   4.0   -0.13    4.09    3.78    -1.47617     0.92611     2.21773
    14  H   1.0    0.05    1.00    1.43    -0.65101     2.01314     3.75258
    15  H   1.0    0.04    1.00    1.43    -0.75196    -0.99693     2.31299
    16  H   1.0    0.04    1.00    1.43    -0.86038     1.76172     0.44250
    17  H   1.0    0.04    1.00    1.43    -5.30590     3.01875     7.09893
 
  Z AO/shell   Hii/eV     exponent
  1     Wed Apr 25 08:07:45 CEST 2018   EN: 2.200 GM2: 0.406  GM3: 0.0800  RAES: 1.40
     1s    -10.707211    1.230000
  6     Wed Apr 25 08:07:45 CEST 2018   EN: 2.550 GM2: 0.538  GM3: 0.1500  RAES: 3.00
     2s    -13.970922    2.096432
     2p    -10.063292    1.800000
 
Refinement of some symmetry elements was terminated before convergence was reached.
Some symmetry elements may remain unidentified.
Molecule has no symmetry elements
It seems to be the C1 point group
c1  symmetry found (for desy threshold:  0.10E+00) used in thermo
 no old-style atom pair restraing (fixing) potential
 
             =======================================
             |                                     |
             |        S C C  calculation           |
             |                                     |
             =======================================
 #proc     :            2
 Ncao      :           32
 Nao       :           32
 Nel       :           32
 T(el)     :   300.0
 intcut    :    25.0
 scfconv   :  0.100E-05
   qconv   :  0.100E-03
 intneglect:  0.100E-07
 broydamp  :      0.400
 Nshell    :           22
  q data taken from xtbrestart
  CAMM data taken from xtbrestart
 iter      E             dE          RMSdq      gap      omega  full diag
   1    -17.0888895 -0.170889E+02  0.214E-06   13.58       0.0  T
   2    -17.0888895 -0.213163E-13  0.117E-06   13.58   20672.2  T
   3    -17.0888895  0.284217E-13  0.932E-08   13.58  100000.0  T
speedup  1.00
cpu  time for SCC    0.01 s
wall time for SCC    0.01 s

          eigenvalues
 #    :           4          5          6          7          8          9         10         11
 occ. :        2.000      2.000      2.000      2.000      2.000      2.000      2.000      2.000
 eps  :       -15.406    -14.831    -13.884    -13.590    -13.363    -13.033    -12.576    -12.455
 #    :          12         13         14         15         16         17         18         19
 occ. :        2.000      2.000      2.000      2.000      2.000      0.000      0.000      0.000
 eps  :       -12.201    -11.932    -11.554    -11.437    -11.371      2.213      2.749      3.011
 #    :          20         21         22         23         24         25         26         27
 occ. :        0.000      0.000      0.000      0.000      0.000      0.000      0.000      0.000
 eps  :         3.809      3.990      4.148      5.172      5.368      5.591      6.155      6.417
 

   #   Z            q   n(s)   n(p)   n(d)      C6AA      α(0)    relVol
   1   6 C     -0.106  1.041  3.065  0.000    22.647     6.793     0.550
   2   1 H      0.034  0.966  0.000  0.000     2.528     2.486     0.492
   3   1 H      0.033  0.967  0.000  0.000     2.535     2.490     0.493
   4   1 H      0.031  0.969  0.000  0.000     2.573     2.508     0.496
   5   6 C     -0.010  1.059  2.952  0.000    20.781     6.491     0.525
   6   1 H      0.026  0.974  0.000  0.000     2.634     2.538     0.502
   7   6 C     -0.057  1.052  3.006  0.000    21.655     6.630     0.537
   8   1 H      0.029  0.971  0.000  0.000     2.603     2.523     0.499
   9   1 H      0.030  0.970  0.000  0.000     2.576     2.509     0.497
  10   6 C     -0.101  1.036  3.065  0.000    22.630     6.805     0.551
  11   1 H      0.031  0.969  0.000  0.000     2.567     2.505     0.496
  12   1 H      0.034  0.966  0.000  0.000     2.522     2.483     0.491
  13   6 C     -0.105  1.039  3.066  0.000    22.628     6.791     0.550
  14   1 H      0.034  0.966  0.000  0.000     2.521     2.483     0.491
  15   1 H      0.033  0.967  0.000  0.000     2.533     2.489     0.492
  16   1 H      0.032  0.968  0.000  0.000     2.558     2.501     0.495
  17   1 H      0.032  0.968  0.000  0.000     2.560     2.502     0.495

 Mol. C6AA /au*bohr^6 :       1816.100213
 Mol. C8AA /au*bohr^6 :      37160.685330
 Mol. a(0) /au        :         63.525831

 
 Wiberg/Mayer (AO) data. WBOs > 0.1 written file <wbo>
 largest (>0.05) Wiberg bond orders for each atom
           total WBO             WBO to atom ...
     1  C   3.997    C    5 1.008    H    2 0.987    H    4 0.987    H    3 0.987
     2  H   0.999    C    1 0.987
     3  H   0.999    C    1 0.987
     4  H   0.999    C    1 0.987
     5  C   3.996    C   13 1.010    C    1 1.008    C    7 0.997    H    6 0.969
     6  H   0.999    C    5 0.969
     7  C   3.997    C   10 1.019    C    5 0.997    H    9 0.978    H    8 0.977
     8  H   0.999    C    7 0.977
     9  H   0.999    C    7 0.978
    10  C   3.997    C    7 1.019    H   17 0.988    H   11 0.987    H   12 0.986
    11  H   0.999    C   10 0.987
    12  H   0.999    C   10 0.986
    13  C   3.997    C    5 1.010    H   15 0.987    H   16 0.987    H   14 0.985
    14  H   0.999    C   13 0.985
    15  H   0.999    C   13 0.987
    16  H   0.999    C   13 0.987
    17  H   0.999    C   10 0.988
 
molecular dipole:
                 x           y           z       tot (Debye)
 q only:        0.013      -0.004       0.004
   full:        0.012      -0.007       0.002       0.031
molecular quadrupole (traceless):
                xx          xy          yy          xz          yz          zz
 q only:       -0.124       0.112      -0.039       0.091       0.060       0.163
  q+dip:       -0.077      -0.368       0.664      -0.129      -0.421      -0.587
   full:       -0.088      -0.126       0.298      -0.039      -0.202      -0.210
 SCC converged in            3  cycles
 
SCC energy    :     -17.0888895
rep           :       0.2582041
ES            :       0.0037819
AES           :       0.0060648
AXC           :       0.0108022
disp          :      -0.0089595
XB            :       0.0000000
fix           :       0.0000000
total E       :     -16.8306632
atomizationE  :       3.9944777     2506.57
(atE without considerung molecular charge,
 total energy contains solvation terms)
H-L gap (eV)  :         13.5841
 
             =======================================
             |                                     |
             |    Approximate Normal Coordinate    |
             |   Rational Function Optimization    |
             |                                     |
             =======================================
Ref. for RF algo: F.Eckert, P.Pulay, H.-J.Werner
                  J.Comput.Chem. 18 (1997) 1473.
ANC idea implemented by S. Grimme in the 2000ers (unpublished)
restraining potential by S. Ehrlich.
dumping coords to <xtbopt.coord> and <xtbopt.log
 optlevel               1
 Maxcycle             200
 Maxmicro              20
 Econv         1.000000000000000E-006
 Gconv         8.000000000000000E-004
 Maxdispl       1.00000000000000     
 Hlow          1.000000000000000E-002
 S6             20.0000000000000     
 Nvar               45

generating ANC from read Hessian ...
 Shifting diagonal of input Hessian by   9.594480288962563E-003
 Lowest  eigenvalues of input Hessian
   -0.000000   -0.000000    0.000000    0.000000    0.000000    0.000000
    0.010000    0.011202    0.011515    0.012619    0.016104    0.020405
    0.023290    0.028893    0.043350    0.053229    0.055912    0.062954
 Highest eigenvalues
    0.771866    0.775429    0.784864    0.799940    0.809383    0.829897
 
cpu  time for ANC gen    0.01 s
wall time for ANC gen    0.01 s
................................................................................
.............................. CYCLE    1 ......................................
................................................................................
  q data taken from xtbrestart
  CAMM data taken from xtbrestart
   1    -17.0888895 -0.170889E+02  0.481E-08   13.58       0.0  T
   2    -17.0888895  0.142109E-13  0.276E-08   13.58  100000.0  T
   3    -17.0888895 -0.355271E-14  0.100E-08   13.58  100000.0  T
speedup  1.00
cpu  time for SCC    0.00 s
wall time for SCC    0.00 s
speedup  1.00
cpu  time for grad    0.00 s
wall time for grad    0.00 s
 E :    -16.83066319  G :  0.000417    pred/act E change:  0.000D+00 -0.269D-11
Maxdispl :   0.0028   ||displ|| :   0.0041   Lambda : -0.639D-06
Largest |displ|/coords:  0.0028 (   3)  0.0014 (   1)  0.0013 (   5)
ancopt converged in          1 cycles
total energy gain (kcal):      0.0000
================
 final structure:
================
    17
        -16.83066319
C          -2.89010660590711   -0.22111208686502    0.03547086700747
H          -2.56828527523087   -1.26035439960904    0.01178731304712
H          -2.55897352443182    0.26068052401223   -0.88183748821646
H          -3.97746799301379   -0.19967929475269    0.05977139006117
C          -2.30580172580317    0.48729055029730    1.25683692333066
H          -2.65662771871088    1.52595049365430    1.25546781230123
C          -2.80341544715715   -0.18833749617540    2.53940575319538
H          -3.89110237526993   -0.27957061870737    2.48337379767414
H          -2.39088752033509   -1.19873039950669    2.59328565765187
C          -2.44406280839259    0.57329897658187    3.81029939595680
H          -2.89701858502939    0.09467102460792    4.67598173405716
H          -1.36831125458503    0.59730370956712    3.96377928627036
C          -0.78115570263414    0.49007742285013    1.17357189176636
H          -0.34449950849213    1.06530757452379    1.98578020659281
H          -0.39791885486954   -0.52755435667122    1.22398213035946
H          -0.45529395716596    0.93226171516689    0.23416286119725
H          -2.80776155297141    1.59745572102594    3.75659350774726
 
 Bond Distances (Angstroems)
 ---------------------------
C1-H2=1.0882         C1-H3=1.0878         C1-H4=1.0878         C1-C5=1.5281         H2-C1=1.0882         H3-C1=1.0878         
H4-C1=1.0878         C5-C1=1.5281         C5-H6=1.0963         C5-C7=1.5327         C5-C13=1.5269        H6-C5=1.0963         
C7-C5=1.5327         C7-H8=1.0929         C7-H9=1.0927         C7-C10=1.5246        H8-C7=1.0929         H9-C7=1.0927         
C10-C7=1.5246        C10-H11=1.0880       C10-H12=1.0869       C10-H17=1.0881       H11-C10=1.0880       H12-C10=1.0869       
C13-C5=1.5269        C13-H14=1.0868       C13-H15=1.0886       C13-H16=1.0882       H14-C13=1.0868       H15-C13=1.0886       
H16-C13=1.0882       H17-C10=1.0881       
 C  H  Rav=1.0894 sigma=0.0028  Rmin=1.0868  Rmax=1.0963    12
 C  C  Rav=1.5281 sigma=0.0029  Rmin=1.5246  Rmax=1.5327     4
 
 selected bond angles (degree)
 --------------------
H3-C1-H2=108.34                H4-C1-H2=108.36                H4-C1-H3=108.32                C5-C1-H2=110.31                
C5-C1-H3=110.63                C5-C1-H4=110.81                H6-C5-C1=108.41                C7-C5-C1=109.90                
C7-C5-H6=108.35                C13-C5-C1=109.82               C13-C5-H6=108.53               C13-C5-C7=111.75               
H8-C7-C5=108.48                H9-C7-C5=109.04                H9-C7-H8=107.52                C10-C7-C5=113.63               
C10-C7-H8=108.60               C10-C7-H9=109.38               H11-C10-C7=110.20              H12-C10-C7=111.22              
H12-C10-H11=108.02             H17-C10-C7=110.50              H17-C10-H11=108.31             H17-C10-H12=108.48             
 
 selected dihedral angles (degree)
 ---------------------------------
H6-C5-C1-H2=180.55            H6-C5-C1-H3= 60.70            H6-C5-C1-H4=300.54            C7-C5-C1-H2=298.80            
C7-C5-C1-H3=178.95            C7-C5-C1-H4= 58.79            C13-C5-C1-H2= 62.13           C13-C5-C1-H3=302.28           
C13-C5-C1-H4=182.12           H8-C7-C5-C1=309.57            H8-C7-C5-H6= 67.86            H8-C7-C5-C13=187.38           
H9-C7-C5-C1= 66.39            H9-C7-C5-H6=184.68            H9-C7-C5-C13=304.20           C10-C7-C5-C1=188.68           
C10-C7-C5-H6=306.97           C10-C7-C5-C13= 66.50          H11-C10-C7-C5=175.01          H11-C10-C7-H8= 54.19          
H11-C10-C7-H9=297.11          H12-C10-C7-C5=294.79          H12-C10-C7-H8=173.96          H12-C10-C7-H9= 56.89          
H17-C10-C7-C5= 55.34          H17-C10-C7-H8=294.51          H17-C10-C7-H9=177.44          
 
             =======================================
             |                                     |
             |        S C C  calculation           |
             |                                     |
             =======================================
 #proc     :            2
 Ncao      :           32
 Nao       :           32
 Nel       :           32
 T(el)     :   300.0
 intcut    :    25.0
 scfconv   :  0.100E-05
   qconv   :  0.100E-03
 intneglect:  0.100E-07
 broydamp  :      0.400
 Nshell    :           22
 iter      E             dE          RMSdq      gap      omega  full diag
   1    -17.0888895 -0.170889E+02  0.268E-09   13.58       0.0  T
   2    -17.0888895  0.000000E+00  0.118E-09   13.58  100000.0  T
   3    -17.0888895  0.355271E-14  0.504E-10   13.58  100000.0  T
speedup  1.00
cpu  time for SCC    0.00 s
wall time for SCC    0.00 s

          eigenvalues
 #    :           4          5          6          7          8          9         10         11
 occ. :        2.000      2.000      2.000      2.000      2.000      2.000      2.000      2.000
 eps  :       -15.406    -14.831    -13.884    -13.590    -13.363    -13.033    -12.576    -12.455
 #    :          12         13         14         15         16         17         18         19
 occ. :        2.000      2.000      2.000      2.000      2.000      0.000      0.000      0.000
 eps  :       -12.201    -11.932    -11.554    -11.437    -11.371      2.213      2.749      3.011
 #    :          20         21         22         23         24         25         26         27
 occ. :        0.000      0.000      0.000      0.000      0.000      0.000      0.000      0.000
 eps  :         3.809      3.990      4.148      5.172      5.368      5.591      6.155      6.417
 

   #   Z            q   n(s)   n(p)   n(d)      C6AA      α(0)    relVol
   1   6 C     -0.106  1.041  3.065  0.000    22.647     6.793     0.550
   2   1 H      0.034  0.966  0.000  0.000     2.528     2.486     0.492
   3   1 H      0.033  0.967  0.000  0.000     2.535     2.490     0.493
   4   1 H      0.031  0.969  0.000  0.000     2.573     2.508     0.496
   5   6 C     -0.010  1.059  2.952  0.000    20.781     6.491     0.525
   6   1 H      0.026  0.974  0.000  0.000     2.634     2.538     0.502
   7   6 C     -0.057  1.052  3.006  0.000    21.655     6.630     0.537
   8   1 H      0.029  0.971  0.000  0.000     2.603     2.523     0.499
   9   1 H      0.030  0.970  0.000  0.000     2.576     2.509     0.497
  10   6 C     -0.101  1.036  3.065  0.000    22.630     6.805     0.551
  11   1 H      0.031  0.969  0.000  0.000     2.567     2.505     0.496
  12   1 H      0.034  0.966  0.000  0.000     2.522     2.483     0.491
  13   6 C     -0.105  1.039  3.066  0.000    22.628     6.791     0.550
  14   1 H      0.034  0.966  0.000  0.000     2.521     2.483     0.491
  15   1 H      0.033  0.967  0.000  0.000     2.533     2.489     0.492
  16   1 H      0.032  0.968  0.000  0.000     2.558     2.501     0.495
  17   1 H      0.032  0.968  0.000  0.000     2.560     2.502     0.495

 Mol. C6AA /au*bohr^6 :       1816.100213
 Mol. C8AA /au*bohr^6 :      37160.685335
 Mol. a(0) /au        :         63.525831

 
 Wiberg/Mayer (AO) data. WBOs > 0.1 written file <wbo>
 largest (>0.05) Wiberg bond orders for each atom
           total WBO             WBO to atom ...
     1  C   3.997    C    5 1.008    H    2 0.987    H    4 0.987    H    3 0.987
     2  H   0.999    C    1 0.987
     3  H   0.999    C    1 0.987
     4  H   0.999    C    1 0.987
     5  C   3.996    C   13 1.010    C    1 1.008    C    7 0.997    H    6 0.969
     6  H   0.999    C    5 0.969
     7  C   3.997    C   10 1.019    C    5 0.997    H    9 0.978    H    8 0.977
     8  H   0.999    C    7 0.977
     9  H   0.999    C    7 0.978
    10  C   3.997    C    7 1.019    H   17 0.988    H   11 0.987    H   12 0.986
    11  H   0.999    C   10 0.987
    12  H   0.999    C   10 0.986
    13  C   3.997    C    5 1.010    H   15 0.987    H   16 0.987    H   14 0.985
    14  H   0.999    C   13 0.985
    15  H   0.999    C   13 0.987
    16  H   0.999    C   13 0.987
    17  H   0.999    C   10 0.988
 
molecular dipole:
                 x           y           z       tot (Debye)
 q only:        0.013      -0.004       0.004
   full:        0.010      -0.007       0.002       0.031
molecular quadrupole (traceless):
                xx          xy          yy          xz          yz          zz
 q only:       -0.124       0.112      -0.039       0.091       0.060       0.163
  q+dip:       -0.077      -0.368       0.664      -0.129      -0.421      -0.587
   full:       -0.088      -0.126       0.298      -0.039      -0.202      -0.210
 SCC converged in            3  cycles
 
SCC energy    :     -17.0888895
rep           :       0.2582041
ES            :       0.0037819
AES           :       0.0060648
AXC           :       0.0108022
disp          :      -0.0089595
XB            :       0.0000000
fix           :       0.0000000
total E       :     -16.8306632
atomizationE  :       3.9944777     2506.57
(atE without considerung molecular charge,
 total energy contains solvation terms)
H-L gap (eV)  :         13.5841
 !!!!!!!!!!!!!!!!!!!!!!!!!!!!!!!!!!!
 ! Note: the input coordinates are !
 ! NOT overwritten. The optimized  !
 ! ones are on file <xtbopt.coord> !
 ! (or on <xtbopt.xyz> if it was a !
 ! xyz file)                       !
 !!!!!!!!!!!!!!!!!!!!!!!!!!!!!!!!!!!
 
Refinement of some symmetry elements was terminated before convergence was reached.
Some symmetry elements may remain unidentified.
Molecule has no symmetry elements
It seems to be the C1 point group
c1  symmetry found (for desy threshold:  0.10E+00) used in thermo
  q data taken from xtbrestart
  CAMM data taken from xtbrestart
 
             =======================================
             |                                     |
             |         Numerical Hessian           |
             |                                     |
             =======================================
step length          :   0.00500
SCC accuracy         :   0.30000
Hessian scale factor :   1.00000
frozen atoms in %    :   0.00000    0
RMS gradient         :   0.00042
estimated CPU  time      0.02 min
estimated wall time      0.02 min
 
 writing file <hessian>.
 
 projected vibrational frequencies (cm-1)
eig.   :       -0.00    -0.00    -0.00    -0.00     0.00     0.00
eig.   :       78.28   198.60   214.65   248.19   268.98   367.57
eig.   :      415.52   464.51   808.27   846.71   947.63   963.54
eig.   :      983.43   998.07  1048.17  1093.34  1167.28  1190.63
eig.   :     1199.98  1265.40  1302.96  1340.11  1364.74  1409.08
eig.   :     1416.09  1422.71  1489.97  1498.91  1502.69  1505.93
eig.   :     1507.57  1509.67  1519.36  2922.21  2961.90  2975.94
eig.   :     3022.15  3024.94  3026.84  3029.25  3030.55  3031.76
eig.   :     3036.30  3041.31  3046.82
 reduced masses (amu)
   1:  9.44   2:  8.89   3:  9.17   4:  9.84   5:  8.60   6:  9.86   7:  6.01   8:  1.43
   9:  1.90  10:  2.92  11:  7.40  12:  7.58  13:  7.43  14:  7.99  15:  3.96  16:  6.18
  17:  2.71  18:  6.57  19:  3.64  20:  2.56  21:  4.90  22:  9.16  23:  7.24  24:  6.20
  25:  6.76  26:  3.17  27:  3.50  28:  4.69  29:  5.24  30:  3.38  31:  3.11  32:  3.10
  33:  1.76  34:  1.61  35:  1.72  36:  1.59  37:  1.54  38:  1.56  39:  1.55  40:  1.74
  41:  1.97  42:  1.49  43:  1.88  44:  1.88  45:  1.92  46:  1.91  47:  1.72  48:  1.80
  49:  1.29  50:  1.47  51:  1.56
 IR intensities (amu)
   1:  0.06   2:  0.12   3:  0.03   4:  0.16   5:  0.09   6:  0.18   7:  0.02   8:  0.01
   9:  0.02  10:  0.03  11:  0.05  12:  0.02  13:  0.03  14:  0.02  15:  0.02  16:  0.05
  17:  0.02  18:  0.07  19:  0.03  20:  0.09  21:  0.12  22:  0.10  23:  0.13  24:  0.11
  25:  0.07  26:  0.06  27:  0.12  28:  0.16  29:  0.05  30:  0.09  31:  0.04  32:  0.06
  33:  0.03  34:  0.02  35:  0.01  36:  0.02  37:  0.03  38:  0.05  39:  0.01  40:  0.25
  41:  0.27  42:  0.21  43:  0.09  44:  0.13  45:  0.03  46:  0.42  47:  0.09  48:  0.38
  49:  0.20  50:  0.10  51:  0.28
 output can be read by thermo (or use thermo option).
 writing <g98.out> molden fake output.
 recommended (thermochemical) frequency scaling factor: 1.0
                    ==================
                    thermo calculation
                    ==================
Nvib :   45 Nimag : 0  symmetry :   c1  rot number :  1  scale factor : 1.00 sthr :  50.
omega= 78.28     Gvib=    -1.173     Grot=    -0.923     Gused=    -1.137
omega=198.60     Gvib=    -0.640     Grot=    -0.648     Gused=    -0.640
omega=214.65     Gvib=    -0.597     Grot=    -0.625     Gused=    -0.598
omega=248.19     Gvib=    -0.520     Grot=    -0.582     Gused=    -0.520
omega=268.98     Gvib=    -0.478     Grot=    -0.558     Gused=    -0.478
 
   temp. (K)  partition function   enthalpy   heat capacity  entropy
                                   cal/mol     cal/K/mol   cal/K/mol   J/K/mol
 298.15  VIB   27.4                 2653.278     18.908     15.360
         ROT  0.108E+06              888.752      2.981     26.009
         INT  0.295E+07             3542.030     21.889     41.370
         TR   0.593E+27             1481.254      4.968     38.727
         TOT                        5023.2840    26.8570    80.0972   335.1255
                     Eh         kcal/mol          kJ/mol 
ZPVE            0.158808         99.6533         416.948    
H(0)-H(T)+PV    0.800511E-02     5.02328         21.0173    
H(T)            0.166813         104.677         437.965    
T*S             0.380568E-01     23.8810         99.9177    
G(T)            0.128756         80.7956         338.047    
    -16.70190723  <=== TOTAL FREE ENERGY in Eh incl. el.,ZPVE,RRHO,solv. parts
 
Eat (element increment corrected) /kcal :  1890.559
        -306.208  <=== HOF(298)/kcal, to be compared to exptl. data
 
 normal mode %tage of torsion character
   1:  0.00   2:  0.00   3:  0.00   4:  0.00   5:  0.00   6:  0.00   7:  0.43   8:  0.92
   9:  0.76  10:  0.78  11:  0.28  12:  0.37  13:  0.49  14:  0.35  15:  0.39  16:  0.37
  17:  0.17  18:  0.34  19:  0.24  20:  0.19  21:  0.20  22:  0.06  23:  0.07  24:  0.41
  25:  0.36  26:  0.25  27:  0.06  28:  0.39  29:  0.10  30:  0.26  31:  0.00  32:  0.28
  33:  0.57  34:  0.54  35:  0.46  36:  0.43  37:  0.41  38:  0.45  39:  0.81  40:  0.18
  41:  0.16  42:  0.01  43:  0.05  44:  0.10  45:  0.05  46:  0.06  47:  0.07  48:  0.12
  49:  0.03  50:  0.01  51:  0.02
 recommended # of modes for mode following           4
 
speedup  0.98
cpu  time for all    0.90 s
wall time for all    0.91 s
