 Entering Gaussian System
 *********************************************
 Gaussian 98:
 frequency output generated by the xtb code
 *********************************************
                         Standard orientation:
 --------------------------------------------------------------------
  Center     Atomic     Atomic              Coordinates (Angstroms)
  Number     Number      Type              X           Y           Z
 --------------------------------------------------------------------
    1          6             0       -2.890108   -0.221097    0.035481
    2          1             0       -2.568292   -1.260341    0.011798
    3          1             0       -2.558975    0.260692   -0.881829
    4          1             0       -3.977469   -0.199658    0.059786
    5          6             0       -2.305795    0.487305    1.256844
    6          1             0       -2.656615    1.525967    1.255474
    7          6             0       -2.803408   -0.188318    2.539416
    8          1             0       -3.891095   -0.279546    2.483388
    9          1             0       -2.390885   -1.198713    2.593296
   10          6             0       -2.444046    0.573318    3.810307
   11          1             0       -2.897002    0.094694    4.675992
   12          1             0       -1.368294    0.597318    3.963783
   13          6             0       -0.781149    0.490084    1.173574
   14          1             0       -0.344487    1.065313    1.985780
   15          1             0       -0.397917   -0.527550    1.223984
   16          1             0       -0.455288    0.932264    0.234163
   17          1             0       -2.807740    1.597477    3.756600
 --------------------------------------------------------------------
     1 basis functions        1 primitive gaussians
     1 alpha electrons        1 beta electrons
 
 Harmonic frequencies (cm**-1), IR intensities (KM/Mole),
 Raman scattering activities (A**4/amu), Raman depolarization ratios,
 reduced masses (AMU), force constants (mDyne/A) and normal coordinates:
                      1                      2                      3
                        a                      a                      a 
 Frequencies --    78.2771               198.5977               214.6475
 Red. masses --     6.0121                 1.4277                 1.8969
 Frc consts  --     0.0000                 0.0000                 0.0000
 IR Inten    --     0.0250                 0.0085                 0.0231
 Raman Activ --     0.0000                 0.0000                 0.0000
 Depolar     --     0.0000                 0.0000                 0.0000
 Atom AN      X      Y      Z        X      Y      Z        X      Y      Z
   1   6     0.14  -0.20  -0.05    -0.00  -0.11   0.05     0.00  -0.10   0.06
   2   1     0.11  -0.04   0.02    -0.19  -0.09   0.17    -0.34  -0.14   0.30
   3   1     0.03  -0.06  -0.02     0.19  -0.20  -0.00     0.33  -0.34  -0.02
   4   1     0.04  -0.13  -0.04     0.00   0.18  -0.11     0.00   0.33  -0.19
   5   6    -0.12   0.05  -0.07     0.00  -0.02  -0.00     0.01   0.10  -0.06
   6   1    -0.06   0.00  -0.08    -0.02  -0.01  -0.00     0.01   0.03  -0.05
   7   6    -0.29   0.19  -0.06     0.03  -0.01   0.01    -0.05   0.12  -0.07
   8   1    -0.10   0.24   0.02     0.01   0.00  -0.01    -0.02   0.06  -0.02
   9   1    -0.25  -0.02  -0.07     0.01  -0.00   0.01    -0.04   0.02  -0.05
  10   6     0.36  -0.20  -0.01    -0.01  -0.00   0.03     0.02  -0.14   0.06
  11   1    -0.02   0.04  -0.01    -0.24   0.16  -0.03     0.24  -0.26   0.02
  12   1     0.11  -0.34   0.00    -0.02  -0.24   0.17     0.02   0.18  -0.14
  13   6    -0.11   0.18   0.18    -0.01   0.12  -0.08     0.02   0.07  -0.02
  14   1    -0.09   0.19  -0.01     0.00  -0.29   0.20     0.00   0.09  -0.05
  15   1     0.00   0.07   0.22     0.00   0.02  -0.44     0.00   0.02   0.08
  16   1    -0.00  -0.07   0.00    -0.02   0.42   0.15     0.01  -0.06  -0.04
  17   1     0.36   0.04   0.01     0.24   0.08  -0.11    -0.23  -0.12   0.21
                      4                      5                      6
                        a                      a                      a 
 Frequencies --   248.1912               268.9785               367.5718
 Red. masses --     2.9156                 7.4002                 7.5802
 Frc consts  --     0.0000                 0.0000                 0.0000
 IR Inten    --     0.0281                 0.0461                 0.0180
 Raman Activ --     0.0000                 0.0000                 0.0000
 Depolar     --     0.0000                 0.0000                 0.0000
 Atom AN      X      Y      Z        X      Y      Z        X      Y      Z
   1   6    -0.16   0.14  -0.01    -0.06  -0.13   0.23    -0.38  -0.11   0.21
   2   1    -0.27  -0.03   0.06     0.05  -0.02   0.09    -0.11  -0.03   0.06
   3   1     0.12  -0.07   0.00    -0.15  -0.06   0.00    -0.30  -0.08  -0.03
   4   1    -0.04   0.28  -0.08    -0.02  -0.11   0.18    -0.11  -0.04   0.28
   5   6     0.02  -0.08   0.03     0.21   0.16  -0.06     0.15   0.08  -0.16
   6   1    -0.01  -0.03   0.05     0.08   0.05  -0.05     0.06   0.03  -0.06
   7   6     0.19  -0.24   0.01     0.04   0.21  -0.08     0.09   0.02  -0.27
   8   1     0.06  -0.17  -0.01     0.01   0.10  -0.10     0.03  -0.00  -0.08
   9   1     0.15  -0.03   0.03    -0.03   0.04  -0.04     0.04   0.01  -0.10
  10   6    -0.05   0.04  -0.10    -0.30  -0.21   0.27     0.02  -0.05  -0.26
  11   1    -0.25   0.22  -0.04    -0.26  -0.09  -0.03     0.03  -0.05  -0.08
  12   1    -0.03  -0.17   0.14    -0.11  -0.18   0.23     0.00   0.02  -0.07
  13   6     0.02   0.08   0.07     0.20   0.04  -0.37     0.19   0.08   0.39
  14   1    -0.05   0.31  -0.15     0.11   0.11  -0.20    -0.08  -0.04   0.22
  15   1     0.06   0.06   0.35     0.05   0.02  -0.01     0.06   0.02   0.09
  16   1     0.00  -0.26  -0.11    -0.00  -0.11  -0.18     0.19   0.11   0.20
  17   1     0.19   0.08  -0.23     0.02  -0.02   0.11    -0.03  -0.03  -0.06
                      7                      8                      9
                        a                      a                      a 
 Frequencies --   415.5247               464.5101               808.2654
 Red. masses --     7.4283                 7.9854                 3.9569
 Frc consts  --     0.0000                 0.0000                 0.0000
 IR Inten    --     0.0338                 0.0159                 0.0180
 Raman Activ --     0.0000                 0.0000                 0.0000
 Depolar     --     0.0000                 0.0000                 0.0000
 Atom AN      X      Y      Z        X      Y      Z        X      Y      Z
   1   6    -0.00  -0.08  -0.21     0.23   0.05   0.39     0.06   0.04   0.13
   2   1     0.07  -0.00   0.01     0.17   0.04   0.28     0.00   0.01  -0.01
   3   1     0.02  -0.05  -0.07     0.07  -0.09   0.06     0.05   0.05   0.07
   4   1    -0.00  -0.09  -0.11     0.06  -0.10   0.05     0.02   0.03   0.01
   5   6    -0.22   0.25  -0.25    -0.12   0.41   0.20     0.03  -0.11   0.04
   6   1    -0.07   0.07  -0.12    -0.03   0.11   0.09    -0.05  -0.05   0.07
   7   6     0.38   0.19  -0.04    -0.03  -0.14  -0.16     0.36   0.00  -0.10
   8   1     0.12  -0.15   0.06     0.00  -0.14  -0.04     0.05   0.48   0.02
   9   1     0.29   0.13  -0.06     0.10   0.00  -0.13    -0.34  -0.18  -0.10
  10   6     0.04  -0.02   0.25     0.00  -0.06  -0.33     0.09  -0.04  -0.09
  11   1    -0.10  -0.08  -0.03     0.01   0.07  -0.05    -0.16  -0.04  -0.14
  12   1    -0.01  -0.04   0.22     0.01  -0.04  -0.13    -0.03   0.24   0.31
  13   6    -0.24  -0.18   0.15    -0.17  -0.12  -0.05    -0.27  -0.02  -0.00
  14   1    -0.10  -0.11   0.10     0.12  -0.09  -0.06    -0.12  -0.00   0.02
  15   1    -0.21  -0.10   0.11    -0.21  -0.10  -0.03    -0.08  -0.00   0.03
  16   1     0.11  -0.11   0.08    -0.05  -0.11  -0.05    -0.05  -0.01   0.01
  17   1     0.03   0.00   0.12     0.03  -0.01  -0.17    -0.21  -0.10  -0.19
                     10                     11                     12
                        a                      a                      a 
 Frequencies --   846.7127               947.6324               963.5414
 Red. masses --     6.1769                 2.7087                 6.5692
 Frc consts  --     0.0000                 0.0000                 0.0000
 IR Inten    --     0.0475                 0.0206                 0.0705
 Raman Activ --     0.0000                 0.0000                 0.0000
 Depolar     --     0.0000                 0.0000                 0.0000
 Atom AN      X      Y      Z        X      Y      Z        X      Y      Z
   1   6    -0.12  -0.02  -0.25     0.14  -0.19  -0.08    -0.30  -0.16  -0.14
   2   1     0.05   0.01   0.14    -0.26  -0.13  -0.33     0.07   0.00  -0.06
   3   1    -0.08  -0.18  -0.18    -0.12   0.09  -0.01     0.13   0.05   0.08
   4   1    -0.04  -0.12  -0.06     0.05   0.25   0.25    -0.09  -0.17  -0.35
   5   6    -0.04   0.32  -0.11     0.10   0.04   0.08    -0.21   0.05   0.32
   6   1    -0.06   0.07   0.07    -0.27  -0.09  -0.13    -0.04   0.02   0.10
   7   6    -0.07  -0.33   0.19     0.02   0.02   0.01     0.07   0.16   0.00
   8   1    -0.04   0.12   0.10     0.01   0.02  -0.04     0.01   0.05   0.11
   9   1    -0.20  -0.17  -0.07    -0.01  -0.00   0.01     0.03   0.04  -0.04
  10   6     0.03  -0.04   0.21    -0.02  -0.02  -0.01     0.04  -0.03  -0.22
  11   1     0.03   0.23   0.20     0.01   0.01   0.01    -0.12  -0.15  -0.20
  12   1     0.00   0.17   0.06    -0.00  -0.02  -0.04    -0.02   0.02   0.12
  13   6     0.26   0.10  -0.05    -0.05   0.22   0.14     0.34   0.03   0.18
  14   1     0.13  -0.07   0.02     0.40  -0.12  -0.07     0.36  -0.00  -0.09
  15   1    -0.13  -0.05   0.04    -0.42  -0.10  -0.05     0.07  -0.01  -0.09
  16   1     0.24  -0.06   0.01    -0.05  -0.14  -0.07    -0.15  -0.02  -0.05
  17   1    -0.09  -0.06  -0.26     0.01   0.00  -0.01    -0.06  -0.03   0.02
                     13                     14                     15
                        a                      a                      a 
 Frequencies --   983.4274               998.0724              1048.1657
 Red. masses --     3.6352                 2.5640                 4.8956
 Frc consts  --     0.0000                 0.0000                 0.0000
 IR Inten    --     0.0311                 0.0944                 0.1195
 Raman Activ --     0.0000                 0.0000                 0.0000
 Depolar     --     0.0000                 0.0000                 0.0000
 Atom AN      X      Y      Z        X      Y      Z        X      Y      Z
   1   6     0.10   0.07  -0.29    -0.02   0.12  -0.14     0.20   0.11   0.10
   2   1    -0.03  -0.01   0.17     0.07   0.04   0.23    -0.06  -0.00   0.04
   3   1    -0.23  -0.27  -0.31    -0.09  -0.20  -0.19    -0.08  -0.02  -0.05
   4   1     0.03   0.01   0.23    -0.01  -0.10   0.04     0.06   0.12   0.23
   5   6     0.12   0.04   0.05     0.07  -0.07   0.03    -0.21  -0.04  -0.16
   6   1     0.20   0.07   0.05    -0.12  -0.07   0.35    -0.09  -0.02  -0.13
   7   6    -0.03  -0.01  -0.05     0.10  -0.11   0.03    -0.27  -0.06   0.15
   8   1    -0.01  -0.03   0.08     0.02   0.10  -0.13    -0.08  -0.15   0.43
   9   1     0.03   0.01  -0.08    -0.11  -0.06   0.42     0.06   0.04   0.02
  10   6     0.07   0.02   0.05    -0.05   0.18  -0.15     0.19   0.04  -0.18
  11   1    -0.04   0.00  -0.02    -0.02  -0.25  -0.20    -0.19  -0.20  -0.28
  12   1     0.00   0.06   0.10    -0.01  -0.17  -0.03    -0.01   0.10   0.33
  13   6    -0.18  -0.12   0.26    -0.04   0.11  -0.03     0.19   0.00  -0.10
  14   1     0.14   0.09  -0.12     0.03  -0.06   0.03    -0.02  -0.01   0.02
  15   1     0.18   0.05  -0.13    -0.20  -0.04   0.04     0.04  -0.00   0.02
  16   1    -0.52   0.05  -0.06     0.13  -0.06   0.00     0.15  -0.01   0.00
  17   1    -0.04  -0.01  -0.03     0.09   0.10   0.35    -0.12  -0.04   0.06
                     16                     17                     18
                        a                      a                      a 
 Frequencies --  1093.3354              1167.2751              1190.6313
 Red. masses --     9.1600                 7.2358                 6.2026
 Frc consts  --     0.0000                 0.0000                 0.0000
 IR Inten    --     0.1045                 0.1325                 0.1122
 Raman Activ --     0.0000                 0.0000                 0.0000
 Depolar     --     0.0000                 0.0000                 0.0000
 Atom AN      X      Y      Z        X      Y      Z        X      Y      Z
   1   6     0.03  -0.03  -0.14    -0.04  -0.30  -0.16    -0.19   0.09   0.11
   2   1    -0.03  -0.02  -0.02    -0.12  -0.10  -0.26     0.16   0.08   0.09
   3   1    -0.06  -0.05  -0.08    -0.03   0.05   0.01     0.14   0.03   0.10
   4   1     0.01   0.01   0.05    -0.01   0.04  -0.05    -0.05  -0.13  -0.22
   5   6     0.10   0.10   0.06     0.28   0.29   0.36     0.39  -0.15  -0.25
   6   1     0.11   0.06  -0.06     0.29   0.15   0.18     0.32   0.04  -0.23
   7   6     0.15   0.29   0.54    -0.19  -0.13  -0.01    -0.20  -0.05   0.09
   8   1     0.04   0.08   0.16    -0.04  -0.09  -0.04    -0.03  -0.13   0.02
   9   1     0.04   0.08   0.21     0.04  -0.00  -0.10     0.05   0.03   0.18
  10   6    -0.18  -0.35  -0.36     0.14   0.12  -0.04     0.13  -0.05  -0.02
  11   1     0.00   0.01  -0.02    -0.07  -0.09  -0.12    -0.06  -0.02  -0.05
  12   1    -0.03  -0.08  -0.21     0.01   0.04   0.18     0.01   0.08   0.14
  13   6    -0.09  -0.02  -0.07    -0.17  -0.00  -0.18    -0.21   0.23   0.11
  14   1    -0.13   0.01   0.03    -0.25   0.00   0.07     0.17  -0.05  -0.02
  15   1     0.01   0.01   0.03    -0.03   0.01   0.10    -0.30  -0.04  -0.04
  16   1     0.06   0.03   0.03     0.14   0.04   0.04    -0.08  -0.09  -0.05
  17   1    -0.04  -0.10  -0.23    -0.04   0.01   0.10    -0.07  -0.05  -0.06
                     19                     20                     21
                        a                      a                      a 
 Frequencies --  1199.9778              1265.3983              1302.9646
 Red. masses --     6.7570                 3.1693                 3.5014
 Frc consts  --     0.0000                 0.0000                 0.0000
 IR Inten    --     0.0717                 0.0596                 0.1234
 Raman Activ --     0.0000                 0.0000                 0.0000
 Depolar     --     0.0000                 0.0000                 0.0000
 Atom AN      X      Y      Z        X      Y      Z        X      Y      Z
   1   6    -0.01  -0.10   0.11     0.02  -0.06   0.03    -0.05   0.18  -0.07
   2   1    -0.02  -0.02  -0.15    -0.03  -0.02  -0.06     0.02   0.05   0.10
   3   1     0.06   0.13   0.12    -0.02   0.05   0.03    -0.05  -0.13  -0.12
   4   1    -0.00   0.06  -0.06     0.00   0.05  -0.02    -0.02  -0.11  -0.05
   5   6    -0.02   0.38  -0.28    -0.03   0.23  -0.09     0.08  -0.02   0.33
   6   1     0.08   0.12  -0.28    -0.26  -0.02   0.06    -0.24  -0.09  -0.63
   7   6     0.15  -0.37   0.18    -0.14   0.05  -0.04    -0.02  -0.08   0.21
   8   1     0.01   0.14   0.08    -0.00  -0.09  -0.44     0.02  -0.00  -0.40
   9   1    -0.19  -0.18   0.14     0.02   0.07   0.59    -0.00  -0.03  -0.22
  10   6    -0.12   0.16  -0.08     0.23  -0.16   0.03     0.08   0.10  -0.04
  11   1     0.03  -0.12  -0.07    -0.07   0.06  -0.00    -0.03  -0.10  -0.11
  12   1    -0.02  -0.15  -0.07     0.03   0.17   0.18     0.01  -0.03   0.05
  13   6    -0.01  -0.13   0.12     0.05  -0.15   0.04     0.01  -0.05  -0.06
  14   1     0.03   0.08  -0.06    -0.05   0.06  -0.03    -0.08  -0.01   0.03
  15   1     0.16   0.03  -0.08     0.15   0.02  -0.03     0.03   0.00   0.04
  16   1    -0.20   0.05  -0.01    -0.11   0.06   0.01     0.03   0.02   0.01
  17   1     0.07   0.08   0.23    -0.11  -0.10  -0.17    -0.04   0.00   0.02
                     22                     23                     24
                        a                      a                      a 
 Frequencies --  1340.1107              1364.7358              1409.0773
 Red. masses --     4.6889                 5.2438                 3.3826
 Frc consts  --     0.0000                 0.0000                 0.0000
 IR Inten    --     0.1596                 0.0456                 0.0872
 Raman Activ --     0.0000                 0.0000                 0.0000
 Depolar     --     0.0000                 0.0000                 0.0000
 Atom AN      X      Y      Z        X      Y      Z        X      Y      Z
   1   6     0.12  -0.02  -0.02    -0.02   0.04  -0.07    -0.14  -0.12  -0.23
   2   1    -0.06  -0.03   0.03    -0.02   0.00   0.04     0.19   0.05   0.28
   3   1    -0.07   0.04  -0.01    -0.01  -0.03  -0.04     0.20   0.21   0.17
   4   1     0.03   0.06   0.12    -0.01  -0.05   0.01    -0.00   0.15   0.28
   5   6    -0.51  -0.14   0.05    -0.03   0.02   0.36     0.10   0.04   0.05
   6   1     0.60   0.21  -0.11     0.08   0.03  -0.41    -0.10  -0.03  -0.05
   7   6     0.09  -0.03   0.04     0.07  -0.05  -0.46    -0.02  -0.01  -0.04
   8   1     0.03   0.03  -0.38    -0.01   0.06   0.39    -0.01  -0.00   0.06
   9   1    -0.05  -0.03   0.10    -0.03  -0.00   0.47     0.00   0.00   0.02
  10   6     0.06   0.01   0.03    -0.07  -0.08   0.05     0.03   0.05   0.11
  11   1    -0.02  -0.03  -0.03     0.07   0.09   0.12    -0.08  -0.10  -0.09
  12   1     0.01   0.00   0.00    -0.01   0.07   0.01     0.02  -0.05  -0.13
  13   6     0.03   0.14  -0.01     0.03   0.02  -0.09    -0.31  -0.03  -0.00
  14   1     0.16  -0.06  -0.01    -0.07  -0.03   0.04     0.30  -0.07  -0.14
  15   1    -0.01   0.02   0.00    -0.04  -0.01   0.07     0.34   0.13  -0.01
  16   1     0.16  -0.06   0.00     0.03   0.03   0.01     0.33  -0.02   0.12
  17   1    -0.03  -0.02  -0.04     0.08   0.02   0.01    -0.04  -0.02  -0.13
                     25                     26                     27
                        a                      a                      a 
 Frequencies --  1416.0926              1422.7051              1489.9656
 Red. masses --     3.1147                 3.1011                 1.7599
 Frc consts  --     0.0000                 0.0000                 0.0000
 IR Inten    --     0.0441                 0.0624                 0.0282
 Raman Activ --     0.0000                 0.0000                 0.0000
 Depolar     --     0.0000                 0.0000                 0.0000
 Atom AN      X      Y      Z        X      Y      Z        X      Y      Z
   1   6    -0.02  -0.02  -0.05     0.11   0.15   0.26     0.05   0.02  -0.05
   2   1     0.04   0.01   0.06    -0.20  -0.04  -0.34    -0.19  -0.06   0.13
   3   1     0.03   0.04   0.03    -0.18  -0.27  -0.20    -0.02   0.14   0.06
   4   1    -0.00   0.04   0.06    -0.00  -0.20  -0.33     0.00  -0.16   0.01
   5   6    -0.00  -0.01  -0.01     0.03  -0.00  -0.02     0.00  -0.00   0.01
   6   1    -0.02  -0.01  -0.01    -0.02  -0.01   0.03    -0.00  -0.00   0.00
   7   6    -0.01  -0.01   0.08    -0.01  -0.00  -0.04    -0.11  -0.19  -0.02
   8   1     0.00   0.06  -0.09    -0.01   0.03   0.07    -0.05   0.52  -0.00
   9   1     0.05   0.02  -0.08     0.03   0.02   0.04     0.49   0.20   0.02
  10   6    -0.08  -0.20  -0.35     0.00  -0.00   0.04     0.03   0.04  -0.00
  11   1     0.18   0.34   0.27    -0.04  -0.02  -0.02     0.01   0.05   0.03
  12   1    -0.07   0.25   0.41     0.01   0.01  -0.06     0.00  -0.16   0.01
  13   6    -0.11   0.01   0.01    -0.29  -0.00   0.02     0.02   0.02   0.11
  14   1     0.13  -0.07  -0.03     0.30  -0.07  -0.12    -0.14   0.14  -0.02
  15   1     0.15   0.06  -0.00     0.32   0.13  -0.03    -0.01  -0.02  -0.34
  16   1     0.11  -0.05   0.02     0.32  -0.06   0.09     0.10  -0.21  -0.05
  17   1     0.17   0.07   0.47     0.00  -0.00  -0.04    -0.16  -0.06   0.00
                     28                     29                     30
                        a                      a                      a 
 Frequencies --  1498.9070              1502.6865              1505.9332
 Red. masses --     1.6059                 1.7236                 1.5866
 Frc consts  --     0.0000                 0.0000                 0.0000
 IR Inten    --     0.0169                 0.0065                 0.0200
 Raman Activ --     0.0000                 0.0000                 0.0000
 Depolar     --     0.0000                 0.0000                 0.0000
 Atom AN      X      Y      Z        X      Y      Z        X      Y      Z
   1   6    -0.01   0.11  -0.06    -0.10   0.04   0.04     0.07   0.07  -0.07
   2   1    -0.21  -0.06  -0.05     0.17   0.06  -0.24    -0.34  -0.11   0.13
   3   1     0.24  -0.04   0.06     0.25  -0.24  -0.03     0.07   0.16   0.10
   4   1    -0.00  -0.32   0.20    -0.00   0.03   0.19    -0.00  -0.34   0.06
   5   6    -0.00  -0.00   0.02    -0.05  -0.02  -0.04     0.03   0.02  -0.05
   6   1     0.02   0.01  -0.01     0.04   0.01   0.02    -0.00   0.00   0.03
   7   6     0.06   0.07  -0.01    -0.07  -0.14   0.02    -0.04  -0.02   0.05
   8   1     0.02  -0.21   0.02    -0.03   0.35  -0.04    -0.01  -0.00  -0.04
   9   1    -0.20  -0.09  -0.01     0.33   0.13  -0.00     0.02   0.00  -0.03
  10   6     0.10  -0.05  -0.02     0.01  -0.05   0.03    -0.15  -0.05   0.06
  11   1    -0.25   0.24  -0.00    -0.14   0.02  -0.06     0.13  -0.33  -0.10
  12   1     0.03   0.02  -0.15     0.01   0.13  -0.12    -0.03   0.38   0.06
  13   6     0.00  -0.11   0.08     0.03  -0.09  -0.10    -0.00  -0.03   0.00
  14   1    -0.02   0.37  -0.25     0.16   0.00  -0.10     0.02   0.06  -0.05
  15   1    -0.18  -0.08  -0.22    -0.13  -0.04   0.37    -0.04  -0.02   0.02
  16   1     0.19   0.16   0.15    -0.09   0.39   0.14    -0.00   0.08   0.04
  17   1    -0.16  -0.05   0.24     0.07   0.02   0.05     0.51   0.17  -0.22
                     31                     32                     33
                        a                      a                      a 
 Frequencies --  1507.5675              1509.6680              1519.3627
 Red. masses --     1.5389                 1.5584                 1.5503
 Frc consts  --     0.0000                 0.0000                 0.0000
 IR Inten    --     0.0255                 0.0455                 0.0144
 Raman Activ --     0.0000                 0.0000                 0.0000
 Depolar     --     0.0000                 0.0000                 0.0000
 Atom AN      X      Y      Z        X      Y      Z        X      Y      Z
   1   6    -0.14   0.07   0.01    -0.03  -0.10   0.06    -0.03   0.05  -0.03
   2   1     0.18   0.07  -0.36     0.32   0.09  -0.02    -0.07  -0.02  -0.08
   3   1     0.40  -0.35  -0.04    -0.20  -0.07  -0.10     0.18  -0.06   0.03
   4   1    -0.00  -0.03   0.32     0.00   0.38  -0.16    -0.00  -0.14   0.14
   5   6    -0.05   0.02   0.03    -0.01  -0.03   0.06     0.00   0.05  -0.01
   6   1     0.01   0.02   0.01     0.02  -0.00  -0.04    -0.02   0.01   0.00
   7   6    -0.00   0.03  -0.01    -0.01  -0.03   0.01     0.01  -0.03   0.02
   8   1     0.00  -0.04  -0.03    -0.00   0.04  -0.00     0.00   0.01  -0.01
   9   1    -0.04  -0.01   0.03     0.03   0.01  -0.02    -0.01  -0.01  -0.00
  10   6    -0.08   0.06  -0.02    -0.03  -0.10   0.06     0.07  -0.10   0.06
  11   1     0.29  -0.18   0.05    -0.19  -0.04  -0.11    -0.38   0.13  -0.12
  12   1    -0.03  -0.09   0.22     0.01   0.36  -0.18     0.04   0.27  -0.33
  13   6     0.01   0.04   0.08     0.02  -0.03   0.11     0.02   0.15  -0.01
  14   1    -0.12   0.06   0.03    -0.13   0.29  -0.12    -0.13  -0.32   0.30
  15   1     0.05   0.01  -0.28    -0.11  -0.06  -0.36     0.20   0.08  -0.02
  16   1     0.08  -0.24  -0.08     0.18  -0.08   0.03    -0.15  -0.36  -0.23
  17   1     0.07   0.02  -0.20     0.29   0.10   0.04     0.07   0.03   0.18
                     34                     35                     36
                        a                      a                      a 
 Frequencies --  2922.2149              2961.9023              2975.9432
 Red. masses --     1.7407                 1.9674                 1.4935
 Frc consts  --     0.0000                 0.0000                 0.0000
 IR Inten    --     0.2520                 0.2658                 0.2090
 Raman Activ --     0.0000                 0.0000                 0.0000
 Depolar     --     0.0000                 0.0000                 0.0000
 Atom AN      X      Y      Z        X      Y      Z        X      Y      Z
   1   6     0.01  -0.01   0.01     0.01  -0.00  -0.00     0.01   0.02  -0.01
   2   1    -0.01   0.05   0.00    -0.00   0.02  -0.00     0.02  -0.04   0.00
   3   1     0.01   0.01  -0.02     0.00  -0.00   0.00    -0.01  -0.01   0.03
   4   1    -0.02  -0.00   0.00    -0.03   0.00   0.00    -0.03   0.00   0.00
   5   6    -0.08   0.24  -0.00    -0.02   0.03  -0.00    -0.00  -0.02   0.00
   6   1     0.31  -0.91   0.00     0.03  -0.08  -0.00    -0.01   0.03   0.00
   7   6     0.02  -0.01   0.00    -0.26   0.13  -0.02    -0.08  -0.19   0.00
   8   1    -0.05  -0.01  -0.00     0.75   0.07   0.04     0.60   0.01   0.03
   9   1    -0.03   0.09  -0.01     0.20  -0.54   0.03    -0.32   0.69  -0.04
  10   6    -0.00  -0.01   0.00     0.02  -0.01  -0.00     0.01   0.02  -0.02
  11   1     0.00   0.00  -0.01    -0.00  -0.01   0.01    -0.03  -0.03   0.05
  12   1     0.01   0.00   0.00    -0.07  -0.01  -0.01    -0.03   0.00  -0.01
  13   6    -0.00  -0.01   0.00     0.00  -0.01   0.01    -0.00   0.01  -0.00
  14   1     0.01   0.01   0.02    -0.00  -0.00  -0.00    -0.00  -0.00  -0.00
  15   1    -0.02   0.04  -0.00    -0.01   0.04  -0.00     0.01  -0.02   0.00
  16   1     0.01   0.01  -0.02     0.01   0.01  -0.02    -0.00  -0.00   0.01
  17   1    -0.01   0.01  -0.00    -0.02   0.07  -0.00     0.03  -0.06   0.00
                     37                     38                     39
                        a                      a                      a 
 Frequencies --  3022.1544              3024.9429              3026.8366
 Red. masses --     1.8796                 1.8835                 1.9209
 Frc consts  --     0.0000                 0.0000                 0.0000
 IR Inten    --     0.0931                 0.1257                 0.0343
 Raman Activ --     0.0000                 0.0000                 0.0000
 Depolar     --     0.0000                 0.0000                 0.0000
 Atom AN      X      Y      Z        X      Y      Z        X      Y      Z
   1   6     0.07  -0.11   0.02     0.17  -0.02  -0.09     0.01  -0.16   0.07
   2   1    -0.11   0.37   0.00    -0.05   0.25  -0.01    -0.15   0.45   0.01
   3   1     0.04   0.03  -0.08    -0.10  -0.18   0.31     0.10   0.12  -0.26
   4   1    -0.16  -0.01   0.01    -0.44   0.01   0.01    -0.00  -0.02   0.01
   5   6    -0.00   0.01  -0.00     0.01  -0.01   0.00     0.00  -0.01   0.00
   6   1     0.00  -0.02  -0.00    -0.01   0.02  -0.00    -0.01   0.02   0.00
   7   6    -0.00   0.00  -0.00     0.00  -0.00  -0.00    -0.00   0.02  -0.00
   8   1     0.01   0.00   0.00    -0.02  -0.00   0.00    -0.01   0.00  -0.00
   9   1     0.00  -0.01   0.00     0.00   0.00  -0.00     0.02  -0.04   0.00
  10   6     0.01  -0.03   0.01    -0.03   0.01   0.00    -0.00   0.21  -0.10
  11   1     0.01   0.01  -0.02     0.01   0.02  -0.03    -0.19  -0.17   0.33
  12   1    -0.01  -0.00   0.00     0.09   0.00   0.01    -0.03   0.03  -0.02
  13   6    -0.05   0.23  -0.07    -0.03  -0.03   0.20     0.01  -0.05  -0.00
  14   1    -0.02   0.02  -0.04    -0.10  -0.13  -0.15     0.01   0.01   0.02
  15   1     0.28  -0.76   0.03     0.02  -0.06   0.03    -0.06   0.17  -0.01
  16   1    -0.09  -0.08   0.24     0.19   0.28  -0.58     0.00  -0.01   0.00
  17   1    -0.03   0.09  -0.01     0.01  -0.04   0.00     0.22  -0.59   0.03
                     40                     41                     42
                        a                      a                      a 
 Frequencies --  3029.2457              3030.5474              3031.7603
 Red. masses --     1.9085                 1.7216                 1.8003
 Frc consts  --     0.0000                 0.0000                 0.0000
 IR Inten    --     0.4216                 0.0903                 0.3830
 Raman Activ --     0.0000                 0.0000                 0.0000
 Depolar     --     0.0000                 0.0000                 0.0000
 Atom AN      X      Y      Z        X      Y      Z        X      Y      Z
   1   6    -0.01   0.18  -0.08    -0.11  -0.03   0.04     0.17  -0.00  -0.05
   2   1     0.17  -0.51  -0.02    -0.03   0.05   0.01    -0.01   0.10  -0.01
   3   1    -0.13  -0.16   0.32     0.04   0.07  -0.14    -0.04  -0.10   0.18
   4   1    -0.00   0.03  -0.01     0.39  -0.02  -0.01    -0.55   0.02   0.01
   5   6    -0.01   0.03  -0.00    -0.00  -0.00   0.00     0.01  -0.01  -0.01
   6   1     0.02  -0.07   0.00    -0.00   0.00  -0.00    -0.01   0.03  -0.00
   7   6    -0.00   0.03  -0.00     0.02  -0.01  -0.00     0.02  -0.01  -0.00
   8   1    -0.04   0.00  -0.00    -0.04  -0.00  -0.00    -0.07  -0.01  -0.00
   9   1     0.04  -0.10   0.01    -0.01   0.03  -0.00    -0.00   0.02  -0.00
  10   6     0.03   0.15  -0.09     0.17  -0.05  -0.10     0.13  -0.03  -0.07
  11   1    -0.18  -0.18   0.33    -0.22  -0.27   0.44    -0.16  -0.19   0.32
  12   1    -0.07   0.02  -0.02    -0.23  -0.01  -0.04    -0.19  -0.01  -0.03
  13   6    -0.03   0.08  -0.02    -0.03  -0.01   0.09     0.03  -0.05  -0.12
  14   1     0.01   0.03   0.02    -0.02  -0.03  -0.02     0.08   0.09   0.13
  15   1     0.12  -0.33   0.01     0.04  -0.12   0.02    -0.09   0.26  -0.03
  16   1    -0.01  -0.00   0.03     0.11   0.17  -0.34    -0.10  -0.16   0.31
  17   1     0.15  -0.37   0.01    -0.14   0.44  -0.04    -0.10   0.33  -0.03
                     43                     44                     45
                        a                      a                      a 
 Frequencies --  3036.3046              3041.3102              3046.8196
 Red. masses --     1.2862                 1.4660                 1.5595
 Frc consts  --     0.0000                 0.0000                 0.0000
 IR Inten    --     0.1958                 0.0961                 0.2756
 Raman Activ --     0.0000                 0.0000                 0.0000
 Depolar     --     0.0000                 0.0000                 0.0000
 Atom AN      X      Y      Z        X      Y      Z        X      Y      Z
   1   6    -0.04  -0.02  -0.14    -0.01   0.01   0.00     0.00   0.01   0.00
   2   1    -0.14   0.42  -0.01     0.01  -0.04   0.00     0.01  -0.04  -0.00
   3   1    -0.22  -0.32   0.57     0.01   0.01  -0.02     0.01   0.01  -0.02
   4   1     0.51  -0.02  -0.04     0.02   0.00   0.00    -0.02   0.00   0.00
   5   6    -0.00  -0.00  -0.01     0.00   0.01   0.00     0.00   0.01   0.00
   6   1     0.00  -0.00  -0.00     0.00  -0.01  -0.00     0.01  -0.01  -0.00
   7   6    -0.00  -0.00   0.00    -0.01   0.00  -0.00     0.02  -0.00   0.00
   8   1     0.01   0.00   0.00     0.03   0.00   0.00    -0.05  -0.00  -0.00
   9   1    -0.00   0.01  -0.00     0.00  -0.01   0.00    -0.00   0.01   0.00
  10   6    -0.00  -0.00   0.01    -0.13  -0.00  -0.08     0.13   0.01   0.04
  11   1     0.01   0.01  -0.02    -0.15  -0.13   0.23     0.07   0.05  -0.09
  12   1    -0.02  -0.00  -0.00     0.68   0.01   0.08    -0.59  -0.01  -0.07
  13   6     0.02  -0.00  -0.05     0.08   0.08   0.06     0.09   0.10   0.11
  14   1     0.01   0.01   0.00    -0.21  -0.29  -0.43    -0.28  -0.39  -0.56
  15   1    -0.03   0.09  -0.01    -0.02   0.08   0.01    -0.02   0.08   0.01
  16   1    -0.06  -0.08   0.17    -0.05  -0.08   0.20    -0.04  -0.05   0.16
  17   1     0.00  -0.01   0.00    -0.07   0.13  -0.02     0.04  -0.07   0.01
