 Entering Gaussian System
 *********************************************
 Gaussian 98:
 frequency output generated by the xtb code
 *********************************************
                         Standard orientation:
 --------------------------------------------------------------------
  Center     Atomic     Atomic              Coordinates (Angstroms)
  Number     Number      Type              X           Y           Z
 --------------------------------------------------------------------
    1          6             0       -2.890107   -0.221112    0.035471
    2          1             0       -2.568285   -1.260354    0.011787
    3          1             0       -2.558973    0.260681   -0.881837
    4          1             0       -3.977468   -0.199679    0.059771
    5          6             0       -2.305802    0.487291    1.256837
    6          1             0       -2.656628    1.525950    1.255468
    7          6             0       -2.803415   -0.188337    2.539406
    8          1             0       -3.891102   -0.279571    2.483374
    9          1             0       -2.390887   -1.198730    2.593286
   10          6             0       -2.444063    0.573299    3.810299
   11          1             0       -2.897019    0.094671    4.675982
   12          1             0       -1.368311    0.597304    3.963779
   13          6             0       -0.781156    0.490077    1.173572
   14          1             0       -0.344500    1.065308    1.985780
   15          1             0       -0.397919   -0.527554    1.223982
   16          1             0       -0.455294    0.932262    0.234163
   17          1             0       -2.807761    1.597456    3.756593
 --------------------------------------------------------------------
     1 basis functions        1 primitive gaussians
     1 alpha electrons        1 beta electrons
 
 Harmonic frequencies (cm**-1), IR intensities (KM/Mole),
 Raman scattering activities (A**4/amu), Raman depolarization ratios,
 reduced masses (AMU), force constants (mDyne/A) and normal coordinates:
                      1                      2                      3
                        a                      a                      a 
 Frequencies --    78.2771               198.5977               214.6475
 Red. masses --    99.0000                99.0000                99.0000
 Frc consts  --    99.0000                99.0000                99.0000
 IR Inten    --    99.0000                99.0000                99.0000
 Raman Activ --     0.0000                 0.0000                 0.0000
 Depolar     --     0.0000                 0.0000                 0.0000
 Atom AN      X      Y      Z        X      Y      Z        X      Y      Z
   1   6     0.14  -0.20  -0.05    -0.00  -0.11   0.05     0.00  -0.10   0.06
   2   1     0.11  -0.04   0.02    -0.19  -0.09   0.17    -0.34  -0.14   0.30
   3   1     0.03  -0.06  -0.02     0.19  -0.20  -0.00     0.33  -0.34  -0.02
   4   1     0.04  -0.13  -0.04     0.00   0.18  -0.11     0.00   0.33  -0.19
   5   6    -0.12   0.05  -0.07     0.00  -0.02  -0.00     0.01   0.10  -0.06
   6   1    -0.06   0.00  -0.08    -0.02  -0.01  -0.00     0.01   0.03  -0.05
   7   6    -0.29   0.19  -0.06     0.03  -0.01   0.01    -0.05   0.12  -0.07
   8   1    -0.10   0.24   0.02     0.01   0.00  -0.01    -0.02   0.06  -0.02
   9   1    -0.25  -0.02  -0.07     0.01  -0.00   0.01    -0.04   0.02  -0.05
  10   6     0.36  -0.20  -0.01    -0.01  -0.00   0.03     0.02  -0.14   0.06
  11   1    -0.02   0.04  -0.01    -0.24   0.16  -0.03     0.24  -0.26   0.02
  12   1     0.11  -0.34   0.00    -0.02  -0.24   0.17     0.02   0.18  -0.14
  13   6    -0.11   0.18   0.18    -0.01   0.12  -0.08     0.02   0.07  -0.02
  14   1    -0.09   0.19  -0.01     0.00  -0.29   0.20     0.00   0.09  -0.05
  15   1     0.00   0.07   0.22     0.00   0.02  -0.44     0.00   0.02   0.08
  16   1    -0.00  -0.07   0.00    -0.02   0.42   0.15     0.01  -0.06  -0.04
  17   1     0.36   0.04   0.01     0.24   0.08  -0.11    -0.23  -0.12   0.21
                      4                      5                      6
                        a                      a                      a 
 Frequencies --   248.1912               268.9785               367.5718
 Red. masses --    99.0000                99.0000                99.0000
 Frc consts  --    99.0000                99.0000                99.0000
 IR Inten    --    99.0000                99.0000                99.0000
 Raman Activ --     0.0000                 0.0000                 0.0000
 Depolar     --     0.0000                 0.0000                 0.0000
 Atom AN      X      Y      Z        X      Y      Z        X      Y      Z
   1   6    -0.16   0.14  -0.01    -0.06  -0.13   0.23    -0.38  -0.11   0.21
   2   1    -0.27  -0.03   0.06     0.05  -0.02   0.09    -0.11  -0.03   0.06
   3   1     0.12  -0.07   0.00    -0.15  -0.06   0.00    -0.30  -0.08  -0.03
   4   1    -0.04   0.28  -0.08    -0.02  -0.11   0.18    -0.11  -0.04   0.28
   5   6     0.02  -0.08   0.03     0.21   0.16  -0.06     0.15   0.08  -0.16
   6   1    -0.01  -0.03   0.05     0.08   0.05  -0.05     0.06   0.03  -0.06
   7   6     0.19  -0.24   0.01     0.04   0.21  -0.08     0.09   0.02  -0.27
   8   1     0.06  -0.17  -0.01     0.01   0.10  -0.10     0.03  -0.00  -0.08
   9   1     0.15  -0.03   0.03    -0.03   0.04  -0.04     0.04   0.01  -0.10
  10   6    -0.05   0.04  -0.10    -0.30  -0.21   0.27     0.02  -0.05  -0.26
  11   1    -0.25   0.22  -0.04    -0.26  -0.09  -0.03     0.03  -0.05  -0.08
  12   1    -0.03  -0.17   0.14    -0.11  -0.18   0.23     0.00   0.02  -0.07
  13   6     0.02   0.08   0.07     0.20   0.04  -0.37     0.19   0.08   0.39
  14   1    -0.05   0.31  -0.15     0.11   0.11  -0.20    -0.08  -0.04   0.22
  15   1     0.06   0.06   0.35     0.05   0.02  -0.01     0.06   0.02   0.09
  16   1     0.00  -0.26  -0.11    -0.00  -0.11  -0.18     0.19   0.11   0.20
  17   1     0.19   0.08  -0.23     0.02  -0.02   0.11    -0.03  -0.03  -0.06
                      7                      8                      9
                        a                      a                      a 
 Frequencies --   415.5247               464.5101               808.2654
 Red. masses --    99.0000                99.0000                99.0000
 Frc consts  --    99.0000                99.0000                99.0000
 IR Inten    --    99.0000                99.0000                99.0000
 Raman Activ --     0.0000                 0.0000                 0.0000
 Depolar     --     0.0000                 0.0000                 0.0000
 Atom AN      X      Y      Z        X      Y      Z        X      Y      Z
   1   6    -0.00  -0.08  -0.21     0.23   0.05   0.39     0.06   0.04   0.13
   2   1     0.07  -0.00   0.01     0.17   0.04   0.28     0.00   0.01  -0.01
   3   1     0.02  -0.05  -0.07     0.07  -0.09   0.06     0.05   0.05   0.07
   4   1    -0.00  -0.09  -0.11     0.06  -0.10   0.05     0.02   0.03   0.01
   5   6    -0.22   0.25  -0.25    -0.12   0.41   0.20     0.03  -0.11   0.04
   6   1    -0.07   0.07  -0.12    -0.03   0.11   0.09    -0.05  -0.05   0.07
   7   6     0.38   0.19  -0.04    -0.03  -0.14  -0.16     0.36   0.00  -0.10
   8   1     0.12  -0.15   0.06     0.00  -0.14  -0.04     0.05   0.48   0.02
   9   1     0.29   0.13  -0.06     0.10   0.00  -0.13    -0.34  -0.18  -0.10
  10   6     0.04  -0.02   0.25     0.00  -0.06  -0.33     0.09  -0.04  -0.09
  11   1    -0.10  -0.08  -0.03     0.01   0.07  -0.05    -0.16  -0.04  -0.14
  12   1    -0.01  -0.04   0.22     0.01  -0.04  -0.13    -0.03   0.24   0.31
  13   6    -0.24  -0.18   0.15    -0.17  -0.12  -0.05    -0.27  -0.02  -0.00
  14   1    -0.10  -0.11   0.10     0.12  -0.09  -0.06    -0.12  -0.00   0.02
  15   1    -0.21  -0.10   0.11    -0.21  -0.10  -0.03    -0.08  -0.00   0.03
  16   1     0.11  -0.11   0.08    -0.05  -0.11  -0.05    -0.05  -0.01   0.01
  17   1     0.03   0.00   0.12     0.03  -0.01  -0.17    -0.21  -0.10  -0.19
                     10                     11                     12
                        a                      a                      a 
 Frequencies --   846.7127              1519.3627               963.5414
 Red. masses --    99.0000                99.0000                99.0000
 Frc consts  --    99.0000                99.0000                99.0000
 IR Inten    --    99.0000                99.0000                99.0000
 Raman Activ --     0.0000                 0.0000                 0.0000
 Depolar     --     0.0000                 0.0000                 0.0000
 Atom AN      X      Y      Z        X      Y      Z        X      Y      Z
   1   6    -0.12  -0.02  -0.25    -0.03   0.05  -0.03    -0.30  -0.16  -0.14
   2   1     0.05   0.01   0.14    -0.07  -0.02  -0.08     0.07   0.00  -0.06
   3   1    -0.08  -0.18  -0.18     0.18  -0.06   0.03     0.13   0.05   0.08
   4   1    -0.04  -0.12  -0.06    -0.00  -0.14   0.14    -0.09  -0.17  -0.35
   5   6    -0.04   0.32  -0.11     0.00   0.05  -0.01    -0.21   0.05   0.32
   6   1    -0.06   0.07   0.07    -0.02   0.01   0.00    -0.04   0.02   0.10
   7   6    -0.07  -0.33   0.19     0.01  -0.03   0.02     0.07   0.16   0.00
   8   1    -0.04   0.12   0.10     0.00   0.01  -0.01     0.01   0.05   0.11
   9   1    -0.20  -0.17  -0.07    -0.01  -0.01  -0.00     0.03   0.04  -0.04
  10   6     0.03  -0.04   0.21     0.07  -0.10   0.06     0.04  -0.03  -0.22
  11   1     0.03   0.23   0.20    -0.38   0.13  -0.12    -0.12  -0.15  -0.20
  12   1     0.00   0.17   0.06     0.04   0.27  -0.33    -0.02   0.02   0.12
  13   6     0.26   0.10  -0.05     0.02   0.15  -0.01     0.34   0.03   0.18
  14   1     0.13  -0.07   0.02    -0.13  -0.32   0.30     0.36  -0.00  -0.09
  15   1    -0.13  -0.05   0.04     0.20   0.08  -0.02     0.07  -0.01  -0.09
  16   1     0.24  -0.06   0.01    -0.15  -0.36  -0.23    -0.15  -0.02  -0.05
  17   1    -0.09  -0.06  -0.26     0.07   0.03   0.18    -0.06  -0.03   0.02
                     13                     14                     15
                        a                      a                      a 
 Frequencies --   983.4274               947.6324              1190.6313
 Red. masses --    99.0000                99.0000                99.0000
 Frc consts  --    99.0000                99.0000                99.0000
 IR Inten    --    99.0000                99.0000                99.0000
 Raman Activ --     0.0000                 0.0000                 0.0000
 Depolar     --     0.0000                 0.0000                 0.0000
 Atom AN      X      Y      Z        X      Y      Z        X      Y      Z
   1   6     0.10   0.07  -0.29     0.14  -0.19  -0.08    -0.19   0.09   0.11
   2   1    -0.03  -0.01   0.17    -0.26  -0.13  -0.33     0.16   0.08   0.09
   3   1    -0.23  -0.27  -0.31    -0.12   0.09  -0.01     0.14   0.03   0.10
   4   1     0.03   0.01   0.23     0.05   0.25   0.25    -0.05  -0.13  -0.22
   5   6     0.12   0.04   0.05     0.10   0.04   0.08     0.39  -0.15  -0.25
   6   1     0.20   0.07   0.05    -0.27  -0.09  -0.13     0.32   0.04  -0.23
   7   6    -0.03  -0.01  -0.05     0.02   0.02   0.01    -0.20  -0.05   0.09
   8   1    -0.01  -0.03   0.08     0.01   0.02  -0.04    -0.03  -0.13   0.02
   9   1     0.03   0.01  -0.08    -0.01  -0.00   0.01     0.05   0.03   0.18
  10   6     0.07   0.02   0.05    -0.02  -0.02  -0.01     0.13  -0.05  -0.02
  11   1    -0.04   0.00  -0.02     0.01   0.01   0.01    -0.06  -0.02  -0.05
  12   1     0.00   0.06   0.10    -0.00  -0.02  -0.04     0.01   0.08   0.14
  13   6    -0.18  -0.12   0.26    -0.05   0.22   0.14    -0.21   0.23   0.11
  14   1     0.14   0.09  -0.12     0.40  -0.12  -0.07     0.17  -0.05  -0.02
  15   1     0.18   0.05  -0.13    -0.42  -0.10  -0.05    -0.30  -0.04  -0.04
  16   1    -0.52   0.05  -0.06    -0.05  -0.14  -0.07    -0.08  -0.09  -0.05
  17   1    -0.04  -0.01  -0.03     0.01   0.00  -0.01    -0.07  -0.05  -0.06
                     16                     17                     18
                        a                      a                      a 
 Frequencies --   998.0724              1199.9778              1048.1657
 Red. masses --    99.0000                99.0000                99.0000
 Frc consts  --    99.0000                99.0000                99.0000
 IR Inten    --    99.0000                99.0000                99.0000
 Raman Activ --     0.0000                 0.0000                 0.0000
 Depolar     --     0.0000                 0.0000                 0.0000
 Atom AN      X      Y      Z        X      Y      Z        X      Y      Z
   1   6    -0.02   0.12  -0.14    -0.01  -0.10   0.11     0.20   0.11   0.10
   2   1     0.07   0.04   0.23    -0.02  -0.02  -0.15    -0.06  -0.00   0.04
   3   1    -0.09  -0.20  -0.19     0.06   0.13   0.12    -0.08  -0.02  -0.05
   4   1    -0.01  -0.10   0.04    -0.00   0.06  -0.06     0.06   0.12   0.23
   5   6     0.07  -0.07   0.03    -0.02   0.38  -0.28    -0.21  -0.04  -0.16
   6   1    -0.12  -0.07   0.35     0.08   0.12  -0.28    -0.09  -0.02  -0.13
   7   6     0.10  -0.11   0.03     0.15  -0.37   0.18    -0.27  -0.06   0.15
   8   1     0.02   0.10  -0.13     0.01   0.14   0.08    -0.08  -0.15   0.43
   9   1    -0.11  -0.06   0.42    -0.19  -0.18   0.14     0.06   0.04   0.02
  10   6    -0.05   0.18  -0.15    -0.12   0.16  -0.08     0.19   0.04  -0.18
  11   1    -0.02  -0.25  -0.20     0.03  -0.12  -0.07    -0.19  -0.20  -0.28
  12   1    -0.01  -0.17  -0.03    -0.02  -0.15  -0.07    -0.01   0.10   0.33
  13   6    -0.04   0.11  -0.03    -0.01  -0.13   0.12     0.19   0.00  -0.10
  14   1     0.03  -0.06   0.03     0.03   0.08  -0.06    -0.02  -0.01   0.02
  15   1    -0.20  -0.04   0.04     0.16   0.03  -0.08     0.04  -0.00   0.02
  16   1     0.13  -0.06   0.00    -0.20   0.05  -0.01     0.15  -0.01   0.00
  17   1     0.09   0.10   0.35     0.07   0.08   0.23    -0.12  -0.04   0.06
                     19                     20                     21
                        a                      a                      a 
 Frequencies --  1489.9656              1498.9070              1340.1107
 Red. masses --    99.0000                99.0000                99.0000
 Frc consts  --    99.0000                99.0000                99.0000
 IR Inten    --    99.0000                99.0000                99.0000
 Raman Activ --     0.0000                 0.0000                 0.0000
 Depolar     --     0.0000                 0.0000                 0.0000
 Atom AN      X      Y      Z        X      Y      Z        X      Y      Z
   1   6     0.05   0.02  -0.05    -0.01   0.11  -0.06     0.12  -0.02  -0.02
   2   1    -0.19  -0.06   0.13    -0.21  -0.06  -0.05    -0.06  -0.03   0.03
   3   1    -0.02   0.14   0.06     0.24  -0.04   0.06    -0.07   0.04  -0.01
   4   1     0.00  -0.16   0.01    -0.00  -0.32   0.20     0.03   0.06   0.12
   5   6     0.00  -0.00   0.01    -0.00  -0.00   0.02    -0.51  -0.14   0.05
   6   1    -0.00  -0.00   0.00     0.02   0.01  -0.01     0.60   0.21  -0.11
   7   6    -0.11  -0.19  -0.02     0.06   0.07  -0.01     0.09  -0.03   0.04
   8   1    -0.05   0.52  -0.00     0.02  -0.21   0.02     0.03   0.03  -0.38
   9   1     0.49   0.20   0.02    -0.20  -0.09  -0.01    -0.05  -0.03   0.10
  10   6     0.03   0.04  -0.00     0.10  -0.05  -0.02     0.06   0.01   0.03
  11   1     0.01   0.05   0.03    -0.25   0.24  -0.00    -0.02  -0.03  -0.03
  12   1     0.00  -0.16   0.01     0.03   0.02  -0.15     0.01   0.00   0.00
  13   6     0.02   0.02   0.11     0.00  -0.11   0.08     0.03   0.14  -0.01
  14   1    -0.14   0.14  -0.02    -0.02   0.37  -0.25     0.16  -0.06  -0.01
  15   1    -0.01  -0.02  -0.34    -0.18  -0.08  -0.22    -0.01   0.02   0.00
  16   1     0.10  -0.21  -0.05     0.19   0.16   0.15     0.16  -0.06   0.00
  17   1    -0.16  -0.06   0.00    -0.16  -0.05   0.24    -0.03  -0.02  -0.04
                     22                     23                     24
                        a                      a                      a 
 Frequencies --  1502.6865              1093.3354              1265.3983
 Red. masses --    99.0000                99.0000                99.0000
 Frc consts  --    99.0000                99.0000                99.0000
 IR Inten    --    99.0000                99.0000                99.0000
 Raman Activ --     0.0000                 0.0000                 0.0000
 Depolar     --     0.0000                 0.0000                 0.0000
 Atom AN      X      Y      Z        X      Y      Z        X      Y      Z
   1   6    -0.10   0.04   0.04     0.03  -0.03  -0.14     0.02  -0.06   0.03
   2   1     0.17   0.06  -0.24    -0.03  -0.02  -0.02    -0.03  -0.02  -0.06
   3   1     0.25  -0.24  -0.03    -0.06  -0.05  -0.08    -0.02   0.05   0.03
   4   1    -0.00   0.03   0.19     0.01   0.01   0.05     0.00   0.05  -0.02
   5   6    -0.05  -0.02  -0.04     0.10   0.10   0.06    -0.03   0.23  -0.09
   6   1     0.04   0.01   0.02     0.11   0.06  -0.06    -0.26  -0.02   0.06
   7   6    -0.07  -0.14   0.02     0.15   0.29   0.54    -0.14   0.05  -0.04
   8   1    -0.03   0.35  -0.04     0.04   0.08   0.16    -0.00  -0.09  -0.44
   9   1     0.33   0.13  -0.00     0.04   0.08   0.21     0.02   0.07   0.59
  10   6     0.01  -0.05   0.03    -0.18  -0.35  -0.36     0.23  -0.16   0.03
  11   1    -0.14   0.02  -0.06     0.00   0.01  -0.02    -0.07   0.06  -0.00
  12   1     0.01   0.13  -0.12    -0.03  -0.08  -0.21     0.03   0.17   0.18
  13   6     0.03  -0.09  -0.10    -0.09  -0.02  -0.07     0.05  -0.15   0.04
  14   1     0.16   0.00  -0.10    -0.13   0.01   0.03    -0.05   0.06  -0.03
  15   1    -0.13  -0.04   0.37     0.01   0.01   0.03     0.15   0.02  -0.03
  16   1    -0.09   0.39   0.14     0.06   0.03   0.03    -0.11   0.06   0.01
  17   1     0.07   0.02   0.05    -0.04  -0.10  -0.23    -0.11  -0.10  -0.17
                     25                     26                     27
                        a                      a                      a 
 Frequencies --  1509.6680              1505.9332              1507.5675
 Red. masses --    99.0000                99.0000                99.0000
 Frc consts  --    99.0000                99.0000                99.0000
 IR Inten    --    99.0000                99.0000                99.0000
 Raman Activ --     0.0000                 0.0000                 0.0000
 Depolar     --     0.0000                 0.0000                 0.0000
 Atom AN      X      Y      Z        X      Y      Z        X      Y      Z
   1   6    -0.03  -0.10   0.06     0.07   0.07  -0.07    -0.14   0.07   0.01
   2   1     0.32   0.09  -0.02    -0.34  -0.11   0.13     0.18   0.07  -0.36
   3   1    -0.20  -0.07  -0.10     0.07   0.16   0.10     0.40  -0.35  -0.04
   4   1     0.00   0.38  -0.16    -0.00  -0.34   0.06    -0.00  -0.03   0.32
   5   6    -0.01  -0.03   0.06     0.03   0.02  -0.05    -0.05   0.02   0.03
   6   1     0.02  -0.00  -0.04    -0.00   0.00   0.03     0.01   0.02   0.01
   7   6    -0.01  -0.03   0.01    -0.04  -0.02   0.05    -0.00   0.03  -0.01
   8   1    -0.00   0.04  -0.00    -0.01  -0.00  -0.04     0.00  -0.04  -0.03
   9   1     0.03   0.01  -0.02     0.02   0.00  -0.03    -0.04  -0.01   0.03
  10   6    -0.03  -0.10   0.06    -0.15  -0.05   0.06    -0.08   0.06  -0.02
  11   1    -0.19  -0.04  -0.11     0.13  -0.33  -0.10     0.29  -0.18   0.05
  12   1     0.01   0.36  -0.18    -0.03   0.38   0.06    -0.03  -0.09   0.22
  13   6     0.02  -0.03   0.11    -0.00  -0.03   0.00     0.01   0.04   0.08
  14   1    -0.13   0.29  -0.12     0.02   0.06  -0.05    -0.12   0.06   0.03
  15   1    -0.11  -0.06  -0.36    -0.04  -0.02   0.02     0.05   0.01  -0.28
  16   1     0.18  -0.08   0.03    -0.00   0.08   0.04     0.08  -0.24  -0.08
  17   1     0.29   0.10   0.04     0.51   0.17  -0.22     0.07   0.02  -0.20
                     28                     29                     30
                        a                      a                      a 
 Frequencies --  1167.2751              1422.7051              1409.0773
 Red. masses --    99.0000                99.0000                99.0000
 Frc consts  --    99.0000                99.0000                99.0000
 IR Inten    --    99.0000                99.0000                99.0000
 Raman Activ --     0.0000                 0.0000                 0.0000
 Depolar     --     0.0000                 0.0000                 0.0000
 Atom AN      X      Y      Z        X      Y      Z        X      Y      Z
   1   6    -0.04  -0.30  -0.16     0.11   0.15   0.26    -0.14  -0.12  -0.23
   2   1    -0.12  -0.10  -0.26    -0.20  -0.04  -0.34     0.19   0.05   0.28
   3   1    -0.03   0.05   0.01    -0.18  -0.27  -0.20     0.20   0.21   0.17
   4   1    -0.01   0.04  -0.05    -0.00  -0.20  -0.33    -0.00   0.15   0.28
   5   6     0.28   0.29   0.36     0.03  -0.00  -0.02     0.10   0.04   0.05
   6   1     0.29   0.15   0.18    -0.02  -0.01   0.03    -0.10  -0.03  -0.05
   7   6    -0.19  -0.13  -0.01    -0.01  -0.00  -0.04    -0.02  -0.01  -0.04
   8   1    -0.04  -0.09  -0.04    -0.01   0.03   0.07    -0.01  -0.00   0.06
   9   1     0.04  -0.00  -0.10     0.03   0.02   0.04     0.00   0.00   0.02
  10   6     0.14   0.12  -0.04     0.00  -0.00   0.04     0.03   0.05   0.11
  11   1    -0.07  -0.09  -0.12    -0.04  -0.02  -0.02    -0.08  -0.10  -0.09
  12   1     0.01   0.04   0.18     0.01   0.01  -0.06     0.02  -0.05  -0.13
  13   6    -0.17  -0.00  -0.18    -0.29  -0.00   0.02    -0.31  -0.03  -0.00
  14   1    -0.25   0.00   0.07     0.30  -0.07  -0.12     0.30  -0.07  -0.14
  15   1    -0.03   0.01   0.10     0.32   0.13  -0.03     0.34   0.13  -0.01
  16   1     0.14   0.04   0.04     0.32  -0.06   0.09     0.33  -0.02   0.12
  17   1    -0.04   0.01   0.10     0.00  -0.00  -0.04    -0.04  -0.02  -0.13
                     31                     32                     33
                        a                      a                      a 
 Frequencies --  1302.9646              1364.7358              1416.0926
 Red. masses --    99.0000                99.0000                99.0000
 Frc consts  --    99.0000                99.0000                99.0000
 IR Inten    --    99.0000                99.0000                99.0000
 Raman Activ --     0.0000                 0.0000                 0.0000
 Depolar     --     0.0000                 0.0000                 0.0000
 Atom AN      X      Y      Z        X      Y      Z        X      Y      Z
   1   6    -0.05   0.18  -0.07    -0.02   0.04  -0.07    -0.02  -0.02  -0.05
   2   1     0.02   0.05   0.10    -0.02   0.00   0.04     0.04   0.01   0.06
   3   1    -0.05  -0.13  -0.12    -0.01  -0.03  -0.04     0.03   0.04   0.03
   4   1    -0.02  -0.11  -0.05    -0.01  -0.05   0.01    -0.00   0.04   0.06
   5   6     0.08  -0.02   0.33    -0.03   0.02   0.36    -0.00  -0.01  -0.01
   6   1    -0.24  -0.09  -0.63     0.08   0.03  -0.41    -0.02  -0.01  -0.01
   7   6    -0.02  -0.08   0.21     0.07  -0.05  -0.46    -0.01  -0.01   0.08
   8   1     0.02  -0.00  -0.40    -0.01   0.06   0.39     0.00   0.06  -0.09
   9   1    -0.00  -0.03  -0.22    -0.03  -0.00   0.47     0.05   0.02  -0.08
  10   6     0.08   0.10  -0.04    -0.07  -0.08   0.05    -0.08  -0.20  -0.35
  11   1    -0.03  -0.10  -0.11     0.07   0.09   0.12     0.18   0.34   0.27
  12   1     0.01  -0.03   0.05    -0.01   0.07   0.01    -0.07   0.25   0.41
  13   6     0.01  -0.05  -0.06     0.03   0.02  -0.09    -0.11   0.01   0.01
  14   1    -0.08  -0.01   0.03    -0.07  -0.03   0.04     0.13  -0.07  -0.03
  15   1     0.03   0.00   0.04    -0.04  -0.01   0.07     0.15   0.06  -0.00
  16   1     0.03   0.02   0.01     0.03   0.03   0.01     0.11  -0.05   0.02
  17   1    -0.04   0.00   0.02     0.08   0.02   0.01     0.17   0.07   0.47
                     34                     35                     36
                        a                      a                      a 
 Frequencies --  2922.2149              2961.9023              3031.7603
 Red. masses --    99.0000                99.0000                99.0000
 Frc consts  --    99.0000                99.0000                99.0000
 IR Inten    --    99.0000                99.0000                99.0000
 Raman Activ --     0.0000                 0.0000                 0.0000
 Depolar     --     0.0000                 0.0000                 0.0000
 Atom AN      X      Y      Z        X      Y      Z        X      Y      Z
   1   6     0.01  -0.01   0.01     0.01  -0.00  -0.00     0.17  -0.00  -0.05
   2   1    -0.01   0.05   0.00    -0.00   0.02  -0.00    -0.01   0.10  -0.01
   3   1     0.01   0.01  -0.02     0.00  -0.00   0.00    -0.04  -0.10   0.18
   4   1    -0.02  -0.00   0.00    -0.03   0.00   0.00    -0.55   0.02   0.01
   5   6    -0.08   0.24  -0.00    -0.02   0.03  -0.00     0.01  -0.01  -0.01
   6   1     0.31  -0.91   0.00     0.03  -0.08  -0.00    -0.01   0.03  -0.00
   7   6     0.02  -0.01   0.00    -0.26   0.13  -0.02     0.02  -0.01  -0.00
   8   1    -0.05  -0.01  -0.00     0.75   0.07   0.04    -0.07  -0.01  -0.00
   9   1    -0.03   0.09  -0.01     0.20  -0.54   0.03    -0.00   0.02  -0.00
  10   6    -0.00  -0.01   0.00     0.02  -0.01  -0.00     0.13  -0.03  -0.07
  11   1     0.00   0.00  -0.01    -0.00  -0.01   0.01    -0.16  -0.19   0.32
  12   1     0.01   0.00   0.00    -0.07  -0.01  -0.01    -0.19  -0.01  -0.03
  13   6    -0.00  -0.01   0.00     0.00  -0.01   0.01     0.03  -0.05  -0.12
  14   1     0.01   0.01   0.02    -0.00  -0.00  -0.00     0.08   0.09   0.13
  15   1    -0.02   0.04  -0.00    -0.01   0.04  -0.00    -0.09   0.26  -0.03
  16   1     0.01   0.01  -0.02     0.01   0.01  -0.02    -0.10  -0.16   0.31
  17   1    -0.01   0.01  -0.00    -0.02   0.07  -0.00    -0.10   0.33  -0.03
                     37                     38                     39
                        a                      a                      a 
 Frequencies --  3024.9429              3030.5474              3029.2457
 Red. masses --    99.0000                99.0000                99.0000
 Frc consts  --    99.0000                99.0000                99.0000
 IR Inten    --    99.0000                99.0000                99.0000
 Raman Activ --     0.0000                 0.0000                 0.0000
 Depolar     --     0.0000                 0.0000                 0.0000
 Atom AN      X      Y      Z        X      Y      Z        X      Y      Z
   1   6     0.17  -0.02  -0.09    -0.11  -0.03   0.04    -0.01   0.18  -0.08
   2   1    -0.05   0.25  -0.01    -0.03   0.05   0.01     0.17  -0.51  -0.02
   3   1    -0.10  -0.18   0.31     0.04   0.07  -0.14    -0.13  -0.16   0.32
   4   1    -0.44   0.01   0.01     0.39  -0.02  -0.01    -0.00   0.03  -0.01
   5   6     0.01  -0.01   0.00    -0.00  -0.00   0.00    -0.01   0.03  -0.00
   6   1    -0.01   0.02  -0.00    -0.00   0.00  -0.00     0.02  -0.07   0.00
   7   6     0.00  -0.00  -0.00     0.02  -0.01  -0.00    -0.00   0.03  -0.00
   8   1    -0.02  -0.00   0.00    -0.04  -0.00  -0.00    -0.04   0.00  -0.00
   9   1     0.00   0.00  -0.00    -0.01   0.03  -0.00     0.04  -0.10   0.01
  10   6    -0.03   0.01   0.00     0.17  -0.05  -0.10     0.03   0.15  -0.09
  11   1     0.01   0.02  -0.03    -0.22  -0.27   0.44    -0.18  -0.18   0.33
  12   1     0.09   0.00   0.01    -0.23  -0.01  -0.04    -0.07   0.02  -0.02
  13   6    -0.03  -0.03   0.20    -0.03  -0.01   0.09    -0.03   0.08  -0.02
  14   1    -0.10  -0.13  -0.15    -0.02  -0.03  -0.02     0.01   0.03   0.02
  15   1     0.02  -0.06   0.03     0.04  -0.12   0.02     0.12  -0.33   0.01
  16   1     0.19   0.28  -0.58     0.11   0.17  -0.34    -0.01  -0.00   0.03
  17   1     0.01  -0.04   0.00    -0.14   0.44  -0.04     0.15  -0.37   0.01
                     40                     41                     42
                        a                      a                      a 
 Frequencies --  3022.1544              3026.8366              2975.9432
 Red. masses --    99.0000                99.0000                99.0000
 Frc consts  --    99.0000                99.0000                99.0000
 IR Inten    --    99.0000                99.0000                99.0000
 Raman Activ --     0.0000                 0.0000                 0.0000
 Depolar     --     0.0000                 0.0000                 0.0000
 Atom AN      X      Y      Z        X      Y      Z        X      Y      Z
   1   6     0.07  -0.11   0.02     0.01  -0.16   0.07     0.01   0.02  -0.01
   2   1    -0.11   0.37   0.00    -0.15   0.45   0.01     0.02  -0.04   0.00
   3   1     0.04   0.03  -0.08     0.10   0.12  -0.26    -0.01  -0.01   0.03
   4   1    -0.16  -0.01   0.01    -0.00  -0.02   0.01    -0.03   0.00   0.00
   5   6    -0.00   0.01  -0.00     0.00  -0.01   0.00    -0.00  -0.02   0.00
   6   1     0.00  -0.02  -0.00    -0.01   0.02   0.00    -0.01   0.03   0.00
   7   6    -0.00   0.00  -0.00    -0.00   0.02  -0.00    -0.08  -0.19   0.00
   8   1     0.01   0.00   0.00    -0.01   0.00  -0.00     0.60   0.01   0.03
   9   1     0.00  -0.01   0.00     0.02  -0.04   0.00    -0.32   0.69  -0.04
  10   6     0.01  -0.03   0.01    -0.00   0.21  -0.10     0.01   0.02  -0.02
  11   1     0.01   0.01  -0.02    -0.19  -0.17   0.33    -0.03  -0.03   0.05
  12   1    -0.01  -0.00   0.00    -0.03   0.03  -0.02    -0.03   0.00  -0.01
  13   6    -0.05   0.23  -0.07     0.01  -0.05  -0.00    -0.00   0.01  -0.00
  14   1    -0.02   0.02  -0.04     0.01   0.01   0.02    -0.00  -0.00  -0.00
  15   1     0.28  -0.76   0.03    -0.06   0.17  -0.01     0.01  -0.02   0.00
  16   1    -0.09  -0.08   0.24     0.00  -0.01   0.00    -0.00  -0.00   0.01
  17   1    -0.03   0.09  -0.01     0.22  -0.59   0.03     0.03  -0.06   0.00
                     43                     44                     45
                        a                      a                      a 
 Frequencies --  3036.3046              3046.8196              3041.3102
 Red. masses --    99.0000                99.0000                99.0000
 Frc consts  --    99.0000                99.0000                99.0000
 IR Inten    --    99.0000                99.0000                99.0000
 Raman Activ --     0.0000                 0.0000                 0.0000
 Depolar     --     0.0000                 0.0000                 0.0000
 Atom AN      X      Y      Z        X      Y      Z        X      Y      Z
   1   6    -0.04  -0.02  -0.14     0.00   0.01   0.00    -0.01   0.01   0.00
   2   1    -0.14   0.42  -0.01     0.01  -0.04  -0.00     0.01  -0.04   0.00
   3   1    -0.22  -0.32   0.57     0.01   0.01  -0.02     0.01   0.01  -0.02
   4   1     0.51  -0.02  -0.04    -0.02   0.00   0.00     0.02   0.00   0.00
   5   6    -0.00  -0.00  -0.01     0.00   0.01   0.00     0.00   0.01   0.00
   6   1     0.00  -0.00  -0.00     0.01  -0.01  -0.00     0.00  -0.01  -0.00
   7   6    -0.00  -0.00   0.00     0.02  -0.00   0.00    -0.01   0.00  -0.00
   8   1     0.01   0.00   0.00    -0.05  -0.00  -0.00     0.03   0.00   0.00
   9   1    -0.00   0.01  -0.00    -0.00   0.01   0.00     0.00  -0.01   0.00
  10   6    -0.00  -0.00   0.01     0.13   0.01   0.04    -0.13  -0.00  -0.08
  11   1     0.01   0.01  -0.02     0.07   0.05  -0.09    -0.15  -0.13   0.23
  12   1    -0.02  -0.00  -0.00    -0.59  -0.01  -0.07     0.68   0.01   0.08
  13   6     0.02  -0.00  -0.05     0.09   0.10   0.11     0.08   0.08   0.06
  14   1     0.01   0.01   0.00    -0.28  -0.39  -0.56    -0.21  -0.29  -0.43
  15   1    -0.03   0.09  -0.01    -0.02   0.08   0.01    -0.02   0.08   0.01
  16   1    -0.06  -0.08   0.17    -0.04  -0.05   0.16    -0.05  -0.08   0.20
  17   1     0.00  -0.01   0.00     0.04  -0.07   0.01    -0.07   0.13  -0.02
