 
        ______________________________________
       |                                      |
       |           ==================         |
       |                 x T B                |
       |           ==================         |
       |               S. Grimme              |
       |        Universitaet Bonn, MCTC       |
       |         2015-18, Version 5.8.1       |
       |      Sun May  6 11:39:08 CEST 2018   |
       |______________________________________|
 
        This code comes without any warranty
        for non-commercial, academia use only.
        Preliminary GFN2 test version.
        Test license to: Dow Chemical Company
        Cite GFN-xTB work as:
        S. Grimme, C. Bannwarth, P. Shushkov
        JCTC, 13 (2017) 1989-2009
        for GFN2:
        C. Bannwarth, S. Ehlert, S. Grimme
        to be published.
        sTDA-xTB:
        S. Grimme  &  C. Bannwarth, JCP 145 (2016) 054103
        in the mass-spec context additionally:
        V. Asgeirsson, C.Bauer, S. Grimme, Chem. Sci. 8 (2017) 4879
 
        with help from
        P. Shushkov, G. Brandenburg, S. Dohm, J. Pisarek,
        F. März, M. Checinski, S. Ehrlich, S. Spicher, 
        P. Pracht, E. Caldeweyher, S. Ehlert, and C. Bannwarth.
 
        usage        :
        xtb <coord_file> [options]
        where <coord_file> is a valid file of TM)
        (*coord, Bohr) or xmol (*xyz, Angstroem)
        format.

        options:
        -chrg <int>   : molecular charge
        -uhf  <int>   : # of unpaired electrons(=2*S)
        -nox          : skip second, extended part in sTDA-xTB
        -pop          : do population analysis
                      : (default for -nox)
        -mowr <real>  : cut MO write above (def.3 Eh)
        -molden       : write formatted molden file
        -parx <file>  : read parameters for sTDA-xTB
                        calc (def:~/.param_stda2.xtb)
        -parv <file>  : read parameters for vTB part in
                        sTDA-xTB (def: ~/.param_stda1.xtb)
        -xtemp <real> : el. temp for xTB (def. 0 K)
        -etemp <real> : el. temp for GFN (def. 300 K)
        -fod          : calculate the FOD and write
                        molden.input file with
                        appropriate occupations
                        for plotting. Def. T=12500 K
 
        -gfn1         : use GFN-xTB
        -gfn2         : use GFN2-xTB
        -gfn2d3       : GFN2-xTB with D3 instead of D4
        -grad         : GFNn-xTB gradient
        -acc <real>   : GFNn-xTB accuracy (def. 1.0)
        -opt [level]  : optimize at GFNn-xTB
                      : level=crude,vloose,loose,
                      :       tight,vtight
        -hess         : compute Hessian at GFNn-xTB
        -ohess        : optimize and compute Hessian
        -omd          : optimize and do MD
        -siman        : conformational search
        -screen       : opt. loop over ensemble
        -gmd          : annealed MD for GMD procedure
        -modef        : vib mode following
        -gbsa [string1] [string2]
                        use GBSA implicit solvent
                        for solvent [string1] and
                        solvation state [string2]=
                        reference, bar1M (default=1M)
        additional GFN/opt/MD/siman options read from
        $XTBHOME/.xtbrc or $set in coordinate file
 
       spin and charge state information can be on:
       <.CHRG> (charge) and <.UHF> (=nalpha-nbeta)
       -uhf and -chrg override the file info.
       useful machine settings:
       setenv MKL_NUM_THREADS <NCORE_ON_YOUR_MACHINE>
       setenv OMP_STACKSIZE 500m
       limit stacksize unlimited
 
       total energies in Eh, gaps/HL energies in eV
       please read REVISION and HOWTO files carefully
          78  days left until this code expires
 =============================
  # OMP threads =           2
 =============================
 
 xtbhome directory:/home/ua25450/dftb/
 
 argument            1 :-ohess
 
 name of molecule           :
 comment line               :
 number of atoms            :    13
 number of electrons        :    36
 charge                     :  0
 spin                       : 0.0
 first test random number   :  0.5832
 
 
 -----------------------------------------
  G F N (Geometry, Frequency, Non-covalent)
        parametrization, gfnver=           3
     D4 dispersion model
 /home/ua25450/dftb/.param_gfn2.xtb
 -----------------------------------------
      method parameters     
 k(s)        :  1.8500
 k(p)        :  2.2300
 k(d)        :  2.2300
 k(f)        :  2.0000
 kEN (H0ij)  : -2.0000
 D3 a1       :  0.5200
 D3 a2       :  5.0000
 D3 s8       :  2.7000
 D3atm       :  5.0000
 alphaj      :  2.0000
 
     -------------------------
     ! NO SOLVENT MODEL USED !
     -------------------------
 
 doing EN charges ...
 sum q :  0.1887379D-14
 point charge moment (au)
     X       Y       Z   
  -0.1930  -0.0003  -0.1892  total (Debye):    0.687
 
            Z     q(EN)     CN     RAES       Cart. coordinates
     1  C   4.0   -0.04    3.24    3.04    -0.02868    -0.15772     0.00000
     2  C   4.0   -0.04    3.28    3.05     2.60779    -0.15772     0.00000
     3  C   4.0    0.06    3.28    3.05     3.92595     2.12460     0.00000
     4  C   4.0   -0.04    3.28    3.05     2.60758     4.40835    -0.00227
     5  C   4.0   -0.04    3.24    3.04    -0.02826     4.40821    -0.00317
     6  C   4.0   -0.04    3.24    3.04    -1.34654     2.12503    -0.00129
     7  H   1.0    0.04    1.00    1.43    -1.06757    -1.95733     0.00085
     8  H   1.0    0.04    1.00    1.43     3.64621    -1.95770     0.00248
     9  H   1.0    0.04    1.00    1.43     3.64730     6.20764    -0.00238
    10  H   1.0    0.04    1.00    1.43    -1.06784     6.20776    -0.00497
    11  H   1.0    0.04    1.00    1.43    -3.42449     2.12537    -0.00163
    12  O   6.0   -0.17    2.04    1.83     6.62826     2.12480     0.00156
    13  H   1.0    0.11    1.01    1.43     7.23482     2.12269    -1.70817
 
  Z AO/shell   Hii/eV     exponent
  1     Wed Apr 25 08:07:45 CEST 2018   EN: 2.200 GM2: 0.406  GM3: 0.0800  RAES: 1.40
     1s    -10.707211    1.230000
  6     Wed Apr 25 08:07:45 CEST 2018   EN: 2.550 GM2: 0.538  GM3: 0.1500  RAES: 3.00
     2s    -13.970922    2.096432
     2p    -10.063292    1.800000
  8     Wed Apr 25 08:07:45 CEST 2018   EN: 3.440 GM2: 0.452  GM3:-0.0517  RAES: 1.80
     2s    -20.229985    2.439742
     2p    -15.503117    2.137023
 
Molecule has the following symmetry elements: (sigma) 
It seems to be the Cs point group
cs  symmetry found (for desy threshold:  0.10E+00) used in thermo
 no old-style atom pair restraing (fixing) potential
 
             =======================================
             |                                     |
             |        S C C  calculation           |
             |                                     |
             =======================================
 #proc     :            2
 Ncao      :           34
 Nao       :           34
 Nel       :           36
 T(el)     :   300.0
 intcut    :    25.0
 scfconv   :  0.100E-05
   qconv   :  0.100E-03
 intneglect:  0.100E-07
 broydamp  :      0.400
 Nshell    :           20
 iter      E             dE          RMSdq      gap      omega  full diag
   1    -20.2124222 -0.202124E+02  0.553E+00    4.66       0.0  T
   2    -20.2338250 -0.214028E-01  0.308E+00    4.73       1.0  T
   3    -20.2302234  0.360166E-02  0.101E+00    4.48       1.0  T
   4    -20.2370718 -0.684838E-02  0.389E-01    4.63       1.0  T
   5    -20.2376343 -0.562488E-03  0.855E-02    4.65       1.0  T
   6    -20.2376641 -0.298686E-04  0.422E-02    4.63       1.0  T
   7    -20.2376716 -0.749662E-05  0.180E-02    4.63       1.5  T
   8    -20.2376716  0.132697E-07  0.694E-03    4.63       4.0  T
   9    -20.2376720 -0.357221E-06  0.281E-03    4.63       9.9  T
  10    -20.2376720 -0.865367E-08  0.194E-03    4.63      14.3  T
  11    -20.2376720 -0.205810E-07  0.146E-04    4.63     189.6  T
  12    -20.2376720  0.174971E-10  0.734E-05    4.63     377.6  T
speedup  1.88
cpu  time for SCC    0.02 s
wall time for SCC    0.01 s

          eigenvalues
 #    :           6          7          8          9         10         11         12         13
 occ. :        2.000      2.000      2.000      2.000      2.000      2.000      2.000      2.000
 eps  :       -15.762    -15.192    -14.510    -13.881    -13.871    -13.322    -13.103    -12.866
 #    :          14         15         16         17         18         19         20         21
 occ. :        2.000      2.000      2.000      2.000      2.000      0.000      0.000      0.000
 eps  :       -12.147    -11.943    -11.266    -11.117    -10.941     -6.307     -6.219     -2.825
 #    :          22         23         24         25         26         27         28         29
 occ. :        0.000      0.000      0.000      0.000      0.000      0.000      0.000      0.000
 eps  :         0.417      2.582      3.288      3.891      4.295      4.679      5.142      9.867
 

   #   Z            q   n(s)   n(p)   n(d)      C6AA      α(0)    relVol
   1   6 C     -0.029  1.087  2.941  0.000    28.738     8.798     0.712
   2   6 C     -0.046  1.087  2.959  0.000    29.165     8.864     0.717
   3   6 C      0.137  1.059  2.803  0.000    24.989     8.196     0.663
   4   6 C     -0.046  1.087  2.959  0.000    29.164     8.864     0.717
   5   6 C     -0.029  1.087  2.941  0.000    28.737     8.798     0.712
   6   6 C     -0.033  1.085  2.947  0.000    28.832     8.812     0.713
   7   1 H      0.036  0.964  0.000  0.000     2.495     2.470     0.489
   8   1 H      0.045  0.955  0.000  0.000     2.373     2.409     0.477
   9   1 H      0.045  0.955  0.000  0.000     2.373     2.409     0.477
  10   1 H      0.036  0.964  0.000  0.000     2.495     2.470     0.489
  11   1 H      0.034  0.966  0.000  0.000     2.528     2.486     0.492
  12   8 O     -0.442  1.716  4.725  0.000    22.183     6.373     1.226
  13   1 H      0.291  0.709  0.000  0.000     0.688     1.302     0.258

 Mol. C6AA /au*bohr^6 :       2042.137646
 Mol. C8AA /au*bohr^6 :      49489.502537
 Mol. a(0) /au        :         72.251001

 
 Wiberg/Mayer (AO) data. WBOs > 0.1 written file <wbo>
 largest (>0.05) Wiberg bond orders for each atom
           total WBO             WBO to atom ...
     1  C   3.990    C    2 1.440    C    6 1.440    H    7 0.970    C    4 0.112
     2  C   3.989    C    1 1.440    C    3 1.406    H    8 0.968    C    5 0.112
     3  C   3.941    C    2 1.406    C    4 1.405    O   12 0.991    C    6 0.106
     4  C   3.989    C    5 1.442    C    3 1.405    H    9 0.968    C    1 0.112
     5  C   3.990    C    4 1.442    C    6 1.438    H   10 0.970    C    2 0.112
     6  C   3.991    C    1 1.440    C    5 1.438    H   11 0.970    C    3 0.106
     7  H   0.999    C    1 0.970
     8  H   0.998    C    2 0.968
     9  H   0.998    C    4 0.968
    10  H   0.999    C    5 0.970
    11  H   0.998    C    6 0.970
    12  O   1.975    C    3 0.991    H   13 0.891
    13  H   0.915    O   12 0.891
 
molecular dipole:
                 x           y           z       tot (Debye)
 q only:       -0.342      -0.001      -0.498
   full:        0.766      -0.001      -0.681       1.947
molecular quadrupole (traceless):
                xx          xy          yy          xz          yz          zz
 q only:       -2.449      -1.096       2.033      -5.401      -1.587       0.416
  q+dip:       -1.857      -1.125       4.704      -7.562      -2.175      -2.847
   full:       -2.726      -1.126       2.842      -7.602      -2.172      -0.116
 SCC converged in           12  cycles
 
SCC energy    :     -20.2376720
rep           :       0.2958501
ES            :       0.0254487
AES           :       0.0028892
AXC           :       0.0102047
disp          :      -0.0089714
XB            :       0.0000000
fix           :       0.0000000
total E       :     -19.9418101
atomizationE  :       4.0778501     2558.89
(atE without considerung molecular charge,
 total energy contains solvation terms)
H-L gap (eV)  :          4.6336
 
             =======================================
             |                                     |
             |    Approximate Normal Coordinate    |
             |   Rational Function Optimization    |
             |                                     |
             =======================================
Ref. for RF algo: F.Eckert, P.Pulay, H.-J.Werner
                  J.Comput.Chem. 18 (1997) 1473.
ANC idea implemented by S. Grimme in the 2000ers (unpublished)
restraining potential by S. Ehrlich.
dumping coords to <xtbopt.coord> and <xtbopt.log
 optlevel               1
 Maxcycle             200
 Maxmicro              20
 Econv         1.000000000000000E-006
 Gconv         8.000000000000000E-004
 Maxdispl       1.00000000000000     
 Hlow          1.000000000000000E-002
 S6             20.0000000000000     
 Nvar               33

generating ANC from model Hessian ...
 Shifting diagonal of input Hessian by   2.202214775837446E-003
 Lowest  eigenvalues of input Hessian
   -0.000000   -0.000000    0.000000    0.000000    0.000000    0.000000
    0.010000    0.015103    0.019659    0.020296    0.024912    0.049455
    0.064161    0.083386    0.088637    0.090087    0.093067    0.099405
 Highest eigenvalues
    1.381212    1.514535    1.598353    1.830154    1.919199    1.963528
 
cpu  time for ANC gen    0.01 s
wall time for ANC gen    0.00 s
................................................................................
.............................. CYCLE    1 ......................................
................................................................................
  q data taken from xtbrestart
  CAMM data taken from xtbrestart
   1    -20.2376720 -0.202377E+02  0.901E-06    4.63       0.0  T
   2    -20.2376720 -0.103029E-12  0.488E-06    4.63    5685.0  T
   3    -20.2376720  0.000000E+00  0.285E-06    4.63    9720.9  T
speedup  1.98
cpu  time for SCC    0.01 s
wall time for SCC    0.00 s
speedup  2.00
cpu  time for grad    0.00 s
wall time for grad    0.00 s
 E :    -19.94181008  G :  0.043657    pred/act E change:  0.000D+00 -0.816D-10
Maxdispl :   0.0932   ||displ|| :   0.1546   Lambda : -0.476D-02
Largest |displ|/coords:  0.0932 (  18)  0.0837 (  17)  0.0630 (   8)
................................................................................
.............................. CYCLE    2 ......................................
................................................................................
   1    -20.2636448 -0.202636E+02  0.151E-01    4.69       0.0  T
   2    -20.2637066 -0.617859E-04  0.872E-02    4.71       1.0  T
   3    -20.2637310 -0.244776E-04  0.522E-02    4.70       1.0  T
   4    -20.2637369 -0.590878E-05  0.107E-02    4.71       2.6  T
   5    -20.2637373 -0.334316E-06  0.369E-03    4.71       7.5  T
   6    -20.2637374 -0.960917E-07  0.166E-03    4.71      16.7  T
speedup  2.00
cpu  time for SCC    0.01 s
wall time for SCC    0.00 s
speedup  2.00
cpu  time for grad    0.00 s
wall time for grad    0.00 s
 E :    -19.94479518  G :  0.019259    pred/act E change:  0.000D+00 -0.299D-02
Maxdispl :   0.0246   ||displ|| :   0.0508   Lambda : -0.552D-03
Largest |displ|/coords:  0.0246 (  18)  0.0213 (  17)  0.0204 (   8)
................................................................................
.............................. CYCLE    3 ......................................
................................................................................
   1    -20.2701840 -0.202702E+02  0.783E-02    4.69       0.0  T
   2    -20.2702060 -0.220487E-04  0.462E-02    4.71       1.0  T
   3    -20.2702157 -0.968507E-05  0.258E-02    4.71       1.1  T
   4    -20.2702166 -0.926288E-06  0.622E-03    4.71       4.5  T
   5    -20.2702167 -0.114389E-06  0.221E-03    4.71      12.5  T
   6    -20.2702168 -0.345869E-07  0.977E-04    4.71      28.4  T
speedup  2.00
cpu  time for SCC    0.01 s
wall time for SCC    0.00 s
speedup  2.00
cpu  time for grad    0.00 s
wall time for grad    0.00 s
 E :    -19.94508487  G :  0.005575    pred/act E change: -0.244D-02 -0.290D-03
Maxdispl :   0.0209   ||displ|| :   0.0252   Lambda : -0.413D-04
Largest |displ|/coords:  0.0209 (   1)  0.0069 (   4)  0.0055 (   6)
................................................................................
.............................. CYCLE    4 ......................................
................................................................................
   1    -20.2693167 -0.202693E+02  0.272E-02    4.70       0.0  T
   2    -20.2693173 -0.639973E-06  0.162E-02    4.70       1.7  T
   3    -20.2693172  0.686932E-07  0.939E-03    4.70       3.0  T
   4    -20.2693176 -0.357979E-06  0.169E-03    4.70      16.4  T
   5    -20.2693176 -0.786130E-08  0.747E-04    4.70      37.1  T
speedup  2.00
cpu  time for SCC    0.01 s
wall time for SCC    0.00 s
speedup  2.00
cpu  time for grad    0.00 s
wall time for grad    0.00 s
 E :    -19.94511264  G :  0.002499    pred/act E change: -0.276D-03 -0.278D-04
Maxdispl :   0.0162   ||displ|| :   0.0198   Lambda : -0.167D-04
Largest |displ|/coords:  0.0162 (   1)  0.0050 (   6)  0.0049 (  13)
................................................................................
.............................. CYCLE    5 ......................................
................................................................................
   1    -20.2684715 -0.202685E+02  0.185E-02    4.70       0.0  T
   2    -20.2684717 -0.208736E-06  0.112E-02    4.70       2.5  T
   3    -20.2684717  0.687763E-07  0.627E-03    4.70       4.4  T
   4    -20.2684719 -0.192427E-06  0.110E-03    4.70      25.3  T
   5    -20.2684719 -0.228264E-08  0.560E-04    4.70      49.5  T
   6    -20.2684719 -0.127715E-08  0.196E-04    4.70     141.5  T
speedup  2.00
cpu  time for SCC    0.01 s
wall time for SCC    0.00 s
speedup  2.00
cpu  time for grad    0.00 s
wall time for grad    0.00 s
 E :    -19.94512107  G :  0.000701    pred/act E change: -0.206D-04 -0.843D-05
Maxdispl :   0.0018   ||displ|| :   0.0037   Lambda : -0.989D-06
Largest |displ|/coords:  0.0018 (   7)  0.0017 (   1)  0.0016 (   3)
................................................................................
.............................. CYCLE    6 ......................................
................................................................................
   1    -20.2685595 -0.202686E+02  0.467E-03    4.70       0.0  T
   2    -20.2685595 -0.103629E-07  0.280E-03    4.70       9.9  T
   3    -20.2685595  0.545883E-08  0.916E-04    4.70      30.3  T
   4    -20.2685595 -0.807214E-08  0.227E-04    4.70     122.2  T
speedup  2.00
cpu  time for SCC    0.01 s
wall time for SCC    0.00 s
speedup  2.00
cpu  time for grad    0.00 s
wall time for grad    0.00 s
 E :    -19.94512172  G :  0.000313    pred/act E change: -0.835D-05 -0.654D-06
Maxdispl :   0.0049   ||displ|| :   0.0062   Lambda : -0.663D-06
Largest |displ|/coords:  0.0049 (   3)  0.0021 (   1)  0.0018 (   2)
ancopt converged in          6 cycles
total energy gain (kcal):     -2.0781
================
 final structure:
================
    13
        -19.94512172
C          -0.00827074147105   -0.07343650611076   -0.00129533886302
C           1.37487856186973   -0.07753554580983   -0.01560412828084
C           2.06988972215670    1.12508625694120   -0.02306250023293
C           1.37446117129863    2.32744522322422   -0.01661586496367
C          -0.00869026427374    2.32289383445842   -0.00222362498401
C          -0.70212495964017    1.12461110971343    0.00323568653180
H          -0.54562773923663   -1.01040180382861    0.00681185530082
H           1.92753208870114   -1.00527230632229   -0.01313147166260
H           1.92687758956567    3.25530525591095   -0.01535136136029
H          -0.54637351554611    3.25967245144383    0.00452066933874
H          -1.78188790648074    1.12442694460995    0.01372668606311
O           3.45230913814252    1.12564926491867    0.02011441568272
H           3.81513308491404    1.11953742085081   -0.87077135256983
 
 Bond Distances (Angstroems)
 ---------------------------
C1-C2=1.3832         C1-C6=1.3845         C1-H7=1.0801         C2-C1=1.3832         C2-C3=1.3890         C2-H8=1.0799         
C3-C2=1.3890         C3-C4=1.3890         C3-O12=1.3831        C4-C3=1.3890         C4-C5=1.3832         C4-H9=1.0799         
C5-C4=1.3832         C5-C6=1.3845         C5-H10=1.0801        C6-C1=1.3845         C6-C5=1.3845         C6-H11=1.0798        
H7-C1=1.0801         H8-C2=1.0799         H9-C4=1.0799         H10-C5=1.0801        H11-C6=1.0798        O12-C3=1.3831        
O12-H13=0.9620       H13-O12=0.9620       
 C  H  Rav=1.0800 sigma=0.0001  Rmin=1.0798  Rmax=1.0801     5
 C  C  Rav=1.3856 sigma=0.0025  Rmin=1.3832  Rmax=1.3890     6
 O  H  Rav=0.9620 sigma=0.0000  Rmin=0.9620  Rmax=0.9620     1
 O  C  Rav=1.3831 sigma=0.0000  Rmin=1.3831  Rmax=1.3831     1
 
 selected bond angles (degree)
 --------------------
C6-C1-C2=120.25                H7-C1-C2=119.67                H7-C1-C6=120.09                C3-C2-C1=119.86                
H8-C2-C1=120.95                H8-C2-C3=119.19                C4-C3-C2=119.93                O12-C3-C2=120.02               
O12-C3-C4=120.00               C5-C4-C3=119.86                H9-C4-C3=119.19                H9-C4-C5=120.95                
C6-C5-C4=120.25                H10-C5-C4=119.67               H10-C5-C6=120.09               C5-C6-C1=119.86                
H11-C6-C1=120.07               H11-C6-C5=120.07               
 
 selected dihedral angles (degree)
 ---------------------------------
C3-C2-C1-C6=  0.11            C3-C2-C1-H7=180.14            H8-C2-C1-C6=179.62            H8-C2-C1-H7=359.65            
C4-C3-C2-C1=  0.00            C4-C3-C2-H8=180.46            O12-C3-C2-C1=177.25           O12-C3-C2-H8=357.73           
C5-C4-C3-C2=  0.03            C5-C4-C3-O12=182.75           H9-C4-C3-C2=179.56            H9-C4-C3-O12=  2.29           
C6-C5-C4-C3=359.88            C6-C5-C4-H9=180.35            H10-C5-C4-C3=179.89           H10-C5-C4-H9=  0.36           
C5-C6-C1-C2=359.79            C5-C6-C1-H7=179.76            H11-C6-C1-C2=179.96           H11-C6-C1-H7=359.93           
C1-C6-C5-C4=  0.21            C1-C6-C5-H10=180.20           H11-C6-C5-C4=180.05           H11-C6-C5-H10=  0.03          
 
             =======================================
             |                                     |
             |        S C C  calculation           |
             |                                     |
             =======================================
 #proc     :            2
 Ncao      :           34
 Nao       :           34
 Nel       :           36
 T(el)     :   300.0
 intcut    :    25.0
 scfconv   :  0.100E-05
   qconv   :  0.100E-03
 intneglect:  0.100E-07
 broydamp  :      0.400
 Nshell    :           20
 iter      E             dE          RMSdq      gap      omega  full diag
   1    -20.2685595 -0.202686E+02  0.879E-05    4.70       0.0  T
   2    -20.2685595 -0.808242E-11  0.474E-05    4.70     585.5  T
   3    -20.2685595  0.568434E-12  0.276E-05    4.70    1006.1  T
speedup  2.00
cpu  time for SCC    0.01 s
wall time for SCC    0.00 s

          eigenvalues
 #    :           6          7          8          9         10         11         12         13
 occ. :        2.000      2.000      2.000      2.000      2.000      2.000      2.000      2.000
 eps  :       -15.805    -15.260    -14.595    -13.936    -13.913    -13.296    -13.081    -12.864
 #    :          14         15         16         17         18         19         20         21
 occ. :        2.000      2.000      2.000      2.000      2.000      0.000      0.000      0.000
 eps  :       -12.173    -11.900    -11.177    -11.097    -10.869     -6.169     -6.082     -2.598
 #    :          22         23         24         25         26         27         28         29
 occ. :        0.000      0.000      0.000      0.000      0.000      0.000      0.000      0.000
 eps  :         1.603      3.336      4.081      4.635      4.996      5.517      5.623     10.725
 

   #   Z            q   n(s)   n(p)   n(d)      C6AA      α(0)    relVol
   1   6 C     -0.030  1.080  2.950  0.000    28.769     8.804     0.713
   2   6 C     -0.053  1.082  2.971  0.000    29.323     8.890     0.719
   3   6 C      0.141  1.049  2.810  0.000    24.917     8.187     0.663
   4   6 C     -0.053  1.082  2.971  0.000    29.320     8.889     0.719
   5   6 C     -0.030  1.080  2.950  0.000    28.769     8.804     0.713
   6   6 C     -0.036  1.078  2.958  0.000    28.900     8.824     0.714
   7   1 H      0.036  0.964  0.000  0.000     2.496     2.470     0.489
   8   1 H      0.044  0.956  0.000  0.000     2.383     2.414     0.478
   9   1 H      0.045  0.955  0.000  0.000     2.381     2.413     0.477
  10   1 H      0.036  0.964  0.000  0.000     2.495     2.470     0.489
  11   1 H      0.035  0.965  0.000  0.000     2.515     2.480     0.491
  12   8 O     -0.431  1.701  4.730  0.000    21.959     6.341     1.220
  13   1 H      0.296  0.704  0.000  0.000     0.672     1.287     0.255

 Mol. C6AA /au*bohr^6 :       2042.380513
 Mol. C8AA /au*bohr^6 :      49511.834840
 Mol. a(0) /au        :         72.271736

 
 Wiberg/Mayer (AO) data. WBOs > 0.1 written file <wbo>
 largest (>0.05) Wiberg bond orders for each atom
           total WBO             WBO to atom ...
     1  C   3.992    C    2 1.445    C    6 1.439    H    7 0.971    C    4 0.111
     2  C   3.991    C    1 1.445    C    3 1.397    H    8 0.969    C    5 0.111
     3  C   3.944    C    4 1.397    C    2 1.397    O   12 1.011    C    6 0.106
     4  C   3.991    C    5 1.445    C    3 1.397    H    9 0.969    C    1 0.111
     5  C   3.992    C    4 1.445    C    6 1.439    H   10 0.971    C    2 0.111
     6  C   3.993    C    5 1.439    C    1 1.439    H   11 0.971    C    3 0.106
     7  H   0.999    C    1 0.971
     8  H   0.998    C    2 0.969
     9  H   0.998    C    4 0.969
    10  H   0.999    C    5 0.971
    11  H   0.999    C    6 0.971
    12  O   1.994    C    3 1.011    H   13 0.883
    13  H   0.912    O   12 0.883
 
molecular dipole:
                 x           y           z       tot (Debye)
 q only:       -0.220      -0.003      -0.507
   full:       -0.222      -0.004      -0.686       1.832
molecular quadrupole (traceless):
                xx          xy          yy          xz          yz          zz
 q only:       -1.202      -0.736       1.313      -5.467      -1.611      -0.111
  q+dip:       -0.696      -0.759       3.804      -7.641      -2.183      -3.108
   full:       -1.478      -0.759       2.037      -7.654      -2.179      -0.559
 SCC converged in            3  cycles
 
SCC energy    :     -20.2685595
rep           :       0.3234265
ES            :       0.0245482
AES           :       0.0030103
AXC           :       0.0088744
disp          :      -0.0090467
XB            :       0.0000000
fix           :       0.0000000
total E       :     -19.9451217
atomizationE  :       4.0811617     2560.97
(atE without considerung molecular charge,
 total energy contains solvation terms)
H-L gap (eV)  :          4.6997
 !!!!!!!!!!!!!!!!!!!!!!!!!!!!!!!!!!!
 ! Note: the input coordinates are !
 ! NOT overwritten. The optimized  !
 ! ones are on file <xtbopt.coord> !
 ! (or on <xtbopt.xyz> if it was a !
 ! xyz file)                       !
 !!!!!!!!!!!!!!!!!!!!!!!!!!!!!!!!!!!
 
Molecule has the following symmetry elements: (sigma) 
It seems to be the Cs point group
cs  symmetry found (for desy threshold:  0.10E+00) used in thermo
  q data taken from xtbrestart
  CAMM data taken from xtbrestart
 
             =======================================
             |                                     |
             |         Numerical Hessian           |
             |                                     |
             =======================================
step length          :   0.00500
SCC accuracy         :   0.30000
Hessian scale factor :   1.00000
frozen atoms in %    :   0.00000    0
RMS gradient         :   0.00032
estimated CPU  time      0.01 min
estimated wall time      0.01 min
 
 writing file <hessian>.
 
 projected vibrational frequencies (cm-1)
eig.   :       -0.00    -0.00     0.00     0.00     0.00     0.00
eig.   :     -418.58   214.07   374.49   382.34   465.16   499.76
eig.   :      591.12   652.37   753.04   819.11   875.32   896.45
eig.   :      927.77   930.67   988.55  1075.90  1109.15  1141.70
eig.   :     1180.48  1181.10  1246.06  1270.62  1312.12  1436.96
eig.   :     1474.02  1585.29  1600.83  3076.01  3078.70  3089.04
eig.   :     3093.08  3097.31  3546.43
 reduced masses (amu)
   1: 13.34   2: 10.30   3: 11.31   4: 10.78   5: 11.10   6: 12.74   7:  2.23   8: 10.95
   9:  9.03  10: 12.12  11:  9.09  12: 12.48  13: 11.30  14: 10.10  15:  3.45  16: 12.09
  17:  3.31  18:  3.59  19:  4.09  20:  2.93  21: 10.94  22:  6.29  23:  3.74  24:  4.89
  25:  1.42  26:  2.05  27:  9.02  28:  3.97  29: 11.60  30:  8.94  31:  9.10  32: 11.53
  33: 11.48  34:  1.75  35:  1.80  36:  1.84  37:  1.87  38:  1.92  39:  1.87
 IR intensities (amu)
   1:  0.15   2:  0.04   3:  0.07   4:  0.16   5:  0.12   6:  0.19   7:  0.49   8:  0.12
   9:  0.09  10:  0.41  11:  0.19  12:  0.41  13:  0.12  14:  0.13  15:  0.33  16:  0.71
  17:  0.00  18:  0.08  19:  0.00  20:  0.02  21:  0.36  22:  0.17  23:  0.02  24:  1.06
  25:  0.01  26:  0.19  27:  1.11  28:  0.09  29:  0.03  30:  0.08  31:  0.88  32:  0.20
  33:  0.60  34:  0.06  35:  0.15  36:  0.31  37:  0.31  38:  0.10  39:  0.20
 output can be read by thermo (or use thermo option).
 writing <g98.out> molden fake output.
 recommended (thermochemical) frequency scaling factor: 1.0
                    ==================
                    thermo calculation
                    ==================
Nvib :   32 Nimag : 1  symmetry :   cs  rot number :  1  scale factor : 1.00 sthr :  50.
omega=214.07     Gvib=    -0.599     Grot=    -0.626     Gused=    -0.599
 
   temp. (K)  partition function   enthalpy   heat capacity  entropy
                                   cal/mol     cal/K/mol   cal/K/mol   J/K/mol
 298.15  VIB   3.44                 1603.087     15.128      7.834
         ROT  0.167E+06              888.752      2.981     26.879
         INT  0.575E+06             2491.840     18.109     34.713
         TR   0.883E+27             1481.254      4.968     39.519
         TOT                        3973.0935    23.0775    74.2324   310.5871
                     Eh         kcal/mol          kJ/mol 
ZPVE            0.100160         62.8512         262.968    
H(0)-H(T)+PV    0.633153E-02     3.97309         16.6234    
H(T)            0.106491         66.8243         279.592    
T*S             0.352702E-01     22.1324         92.6015    
G(T)            0.712210E-01     44.6919         186.990    
    -19.87390068  <=== TOTAL FREE ENERGY in Eh incl. el.,ZPVE,RRHO,solv. parts
 
Eat (element increment corrected) /kcal :  1889.103
        -424.768  <=== HOF(298)/kcal, to be compared to exptl. data
imag cut-off (cm-1) :    5.00
 found            1  significant imaginary frequency
 writing imag mode distorted coords to <xtbhess.coord>
 for further optimization.
 
 normal mode %tage of torsion character
   1:  0.00   2:  0.00   3:  0.00   4:  0.00   5:  0.00   6:  0.00   7:  0.96   8:  0.81
   9:  0.99  10:  0.16  11:  0.94  12:  0.00  13:  0.00  14:  1.00  15:  1.00  16:  0.00
  17:  1.00  18:  1.00  19:  1.00  20:  1.00  21:  0.00  22:  0.00  23:  0.00  24:  0.09
  25:  0.00  26:  0.01  27:  0.00  28:  0.00  29:  0.00  30:  0.00  31:  0.00  32:  0.00
  33:  0.00  34:  0.00  35:  0.00  36:  0.00  37:  0.00  38:  0.00  39:  0.01
 recommended # of modes for mode following           4
 
speedup  1.60
cpu  time for all    0.94 s
wall time for all    0.59 s
