 Entering Gaussian System
 *********************************************
 Gaussian 98:
 frequency output generated by the xtb code
 *********************************************
                         Standard orientation:
 --------------------------------------------------------------------
  Center     Atomic     Atomic              Coordinates (Angstroms)
  Number     Number      Type              X           Y           Z
 --------------------------------------------------------------------
    1          6             0       -0.008271   -0.073436   -0.001295
    2          6             0        1.374878   -0.077543   -0.015609
    3          6             0        2.069895    1.125075   -0.023072
    4          6             0        1.374473    2.327438   -0.016625
    5          6             0       -0.008678    2.322894   -0.002228
    6          6             0       -0.702119    1.124615    0.003236
    7          1             0       -0.545633   -1.010399    0.006816
    8          1             0        1.927527   -1.005282   -0.013136
    9          1             0        1.926895    3.255295   -0.015364
   10          1             0       -0.546356    3.259675    0.004517
   11          1             0       -1.781882    1.124436    0.013731
   12          8             0        3.452315    1.125631    0.020100
   13          1             0        3.815136    1.119516   -0.870787
 --------------------------------------------------------------------
     1 basis functions        1 primitive gaussians
     1 alpha electrons        1 beta electrons
 
 Harmonic frequencies (cm**-1), IR intensities (KM/Mole),
 Raman scattering activities (A**4/amu), Raman depolarization ratios,
 reduced masses (AMU), force constants (mDyne/A) and normal coordinates:
                      1                      2                      3
                        a                      a                      a 
 Frequencies --  -418.5763               214.0661               374.4862
 Red. masses --     2.2270                10.9452                 9.0331
 Frc consts  --     0.0000                 0.0000                 0.0000
 IR Inten    --     0.4912                 0.1173                 0.0857
 Raman Activ --     0.0000                 0.0000                 0.0000
 Depolar     --     0.0000                 0.0000                 0.0000
 Atom AN      X      Y      Z        X      Y      Z        X      Y      Z
   1   6    -0.00   0.00   0.03     0.00   0.00  -0.01    -0.02   0.01  -0.42
   2   6    -0.00   0.01   0.06    -0.00  -0.00  -0.40    -0.01  -0.05   0.42
   3   6    -0.00   0.00  -0.00    -0.00  -0.00  -0.24    -0.00  -0.06  -0.00
   4   6     0.00   0.01  -0.06    -0.00  -0.00  -0.40     0.01  -0.05  -0.42
   5   6     0.00   0.00  -0.03     0.00   0.00  -0.01     0.02   0.01   0.42
   6   6     0.00   0.00  -0.00     0.00   0.00   0.43     0.00   0.02  -0.00
   7   1    -0.00   0.00   0.01     0.00  -0.00   0.02    -0.02   0.01  -0.26
   8   1     0.01   0.01   0.03    -0.00  -0.00  -0.16    -0.01  -0.02   0.26
   9   1    -0.01   0.01  -0.03    -0.00   0.00  -0.16     0.01  -0.02  -0.26
  10   1     0.00   0.00  -0.01     0.00   0.00   0.02     0.02   0.01   0.26
  11   1    -0.00   0.00   0.00     0.00   0.00   0.28     0.00   0.01  -0.00
  12   8     0.00  -0.27   0.00    -0.03   0.00   0.50    -0.00   0.11  -0.00
  13   1    -0.00   0.96  -0.01     0.14   0.00   0.19     0.00  -0.01   0.00
                      4                      5                      6
                        a                      a                      a 
 Frequencies --   382.3392               465.1612               499.7577
 Red. masses --    12.1201                 9.0943                12.4802
 Frc consts  --     0.0000                 0.0000                 0.0000
 IR Inten    --     0.4119                 0.1915                 0.4064
 Raman Activ --     0.0000                 0.0000                 0.0000
 Depolar     --     0.0000                 0.0000                 0.0000
 Atom AN      X      Y      Z        X      Y      Z        X      Y      Z
   1   6     0.14  -0.06  -0.07     0.00  -0.00   0.28    -0.15   0.21   0.00
   2   6     0.09   0.33   0.06     0.00  -0.00   0.02    -0.09   0.23   0.00
   3   6    -0.00   0.36   0.00    -0.01   0.00  -0.63     0.36  -0.00  -0.01
   4   6    -0.09   0.33  -0.06     0.00   0.00   0.02    -0.09  -0.23   0.00
   5   6    -0.14  -0.06   0.06     0.00   0.00   0.28    -0.15  -0.21   0.00
   6   6    -0.00  -0.15   0.00    -0.00  -0.00  -0.39    -0.48  -0.00   0.00
   7   1     0.10  -0.05  -0.04     0.00   0.00   0.27     0.03   0.02   0.00
   8   1     0.11   0.14   0.04     0.00   0.00   0.17    -0.12   0.01   0.00
   9   1    -0.11   0.14  -0.04     0.00  -0.00   0.17    -0.12  -0.01   0.00
  10   1    -0.10  -0.05   0.04     0.00  -0.00   0.27     0.03  -0.02   0.00
  11   1     0.00  -0.07   0.00    -0.00  -0.00  -0.16    -0.14  -0.00   0.00
  12   8     0.00  -0.64   0.00    -0.05  -0.00   0.15     0.56   0.00  -0.00
  13   1    -0.00  -0.20  -0.00     0.18   0.00   0.12     0.14  -0.00   0.00
                      7                      8                      9
                        a                      a                      a 
 Frequencies --   591.1242               652.3725               753.0383
 Red. masses --    11.3036                10.0992                 3.4498
 Frc consts  --     0.0000                 0.0000                 0.0000
 IR Inten    --     0.1193                 0.1273                 0.3323
 Raman Activ --     0.0000                 0.0000                 0.0000
 Depolar     --     0.0000                 0.0000                 0.0000
 Atom AN      X      Y      Z        X      Y      Z        X      Y      Z
   1   6    -0.37  -0.34   0.00    -0.00  -0.00  -0.38    -0.00  -0.00  -0.14
   2   6    -0.34   0.24   0.00     0.00  -0.00   0.34    -0.00  -0.00  -0.18
   3   6     0.00   0.13  -0.00    -0.01  -0.00  -0.45    -0.00   0.00   0.30
   4   6     0.34   0.24  -0.00     0.00   0.00   0.34    -0.00   0.00  -0.18
   5   6     0.37  -0.34  -0.00    -0.00   0.00  -0.38    -0.00   0.00  -0.14
   6   6     0.00  -0.17   0.00     0.01   0.00   0.34    -0.00  -0.00  -0.16
   7   1    -0.06  -0.12   0.00    -0.00  -0.00  -0.05     0.00   0.00   0.39
   8   1    -0.05   0.09   0.00     0.00   0.00   0.23     0.01   0.00   0.33
   9   1     0.05   0.09  -0.00     0.00  -0.00   0.23     0.01  -0.00   0.33
  10   1     0.06  -0.12  -0.00    -0.00   0.00  -0.05     0.00  -0.00   0.39
  11   1    -0.00   0.12   0.00     0.00   0.00   0.22     0.00   0.00   0.47
  12   8    -0.00   0.16  -0.00    -0.03  -0.00  -0.00     0.05   0.00  -0.03
  13   1     0.00   0.04   0.00     0.11   0.00   0.05    -0.15  -0.00  -0.07
                     10                     11                     12
                        a                      a                      a 
 Frequencies --   819.1142               875.3178               896.4523
 Red. masses --    12.0854                 3.3093                 3.5938
 Frc consts  --     0.0000                 0.0000                 0.0000
 IR Inten    --     0.7118                 0.0010                 0.0825
 Raman Activ --     0.0000                 0.0000                 0.0000
 Depolar     --     0.0000                 0.0000                 0.0000
 Atom AN      X      Y      Z        X      Y      Z        X      Y      Z
   1   6    -0.25  -0.39   0.01     0.00   0.00   0.21     0.00  -0.00  -0.04
   2   6    -0.17  -0.17   0.00     0.00   0.00   0.24    -0.00   0.00   0.24
   3   6    -0.00  -0.00  -0.01     0.00  -0.00   0.00     0.00  -0.00  -0.06
   4   6    -0.17   0.17   0.00    -0.00   0.00  -0.24    -0.00  -0.00   0.24
   5   6    -0.25   0.39   0.01    -0.00   0.00  -0.21     0.00   0.00  -0.04
   6   6     0.31   0.00  -0.00     0.00  -0.00  -0.00     0.00  -0.00  -0.33
   7   1    -0.18  -0.05  -0.00    -0.00  -0.00  -0.42     0.00   0.00   0.14
   8   1    -0.02  -0.04  -0.00    -0.01  -0.01  -0.47    -0.01  -0.01  -0.47
   9   1    -0.02   0.04  -0.00     0.01  -0.01   0.47    -0.01   0.01  -0.47
  10   1    -0.18   0.05  -0.00     0.00  -0.00   0.42     0.00  -0.00   0.14
  11   1     0.08  -0.00  -0.01     0.00  -0.00   0.00     0.01   0.00   0.53
  12   8     0.52   0.00   0.00    -0.00   0.00  -0.00    -0.02  -0.00   0.01
  13   1     0.11  -0.00  -0.01     0.00  -0.00   0.00     0.06   0.00   0.03
                     13                     14                     15
                        a                      a                      a 
 Frequencies --   927.7708               930.6738               988.5457
 Red. masses --     4.0851                 2.9268                10.9385
 Frc consts  --     0.0000                 0.0000                 0.0000
 IR Inten    --     0.0042                 0.0179                 0.3557
 Raman Activ --     0.0000                 0.0000                 0.0000
 Depolar     --     0.0000                 0.0000                 0.0000
 Atom AN      X      Y      Z        X      Y      Z        X      Y      Z
   1   6     0.00   0.00   0.28     0.00  -0.00   0.22    -0.03  -0.14  -0.00
   2   6    -0.00  -0.00  -0.25    -0.00  -0.00  -0.05    -0.18   0.55  -0.00
   3   6    -0.00   0.00  -0.00    -0.00  -0.00  -0.06     0.15  -0.00   0.01
   4   6     0.00  -0.00   0.25    -0.00   0.00  -0.05    -0.18  -0.55  -0.00
   5   6    -0.00  -0.00  -0.28     0.00   0.00   0.22    -0.03   0.14  -0.00
   6   6    -0.00   0.00  -0.00    -0.00  -0.00  -0.27     0.38   0.00  -0.00
   7   1    -0.01  -0.00  -0.45    -0.01  -0.00  -0.47     0.08  -0.08  -0.00
   8   1     0.01   0.01   0.40     0.01   0.00   0.21     0.01   0.19   0.01
   9   1    -0.01   0.01  -0.40     0.01  -0.00   0.21     0.01  -0.19   0.01
  10   1     0.01   0.00   0.45    -0.01   0.00  -0.47     0.08   0.08   0.00
  11   1    -0.00   0.00   0.00     0.00   0.00   0.54     0.10   0.00  -0.00
  12   8     0.00   0.00   0.00    -0.00  -0.00  -0.01    -0.17  -0.00  -0.01
  13   1    -0.00  -0.01   0.00     0.02   0.00   0.01    -0.02   0.00   0.01
                     16                     17                     18
                        a                      a                      a 
 Frequencies --  1075.8966              1109.1510              1141.7012
 Red. masses --     6.2900                 3.7373                 4.8872
 Frc consts  --     0.0000                 0.0000                 0.0000
 IR Inten    --     0.1728                 0.0167                 1.0624
 Raman Activ --     0.0000                 0.0000                 0.0000
 Depolar     --     0.0000                 0.0000                 0.0000
 Atom AN      X      Y      Z        X      Y      Z        X      Y      Z
   1   6     0.06   0.33  -0.00    -0.12  -0.14   0.00    -0.03  -0.09  -0.02
   2   6    -0.16  -0.00  -0.00     0.19  -0.15   0.00     0.03  -0.05  -0.03
   3   6     0.03   0.00   0.01    -0.00   0.13  -0.00     0.21  -0.00   0.26
   4   6    -0.16   0.00  -0.00    -0.19  -0.15  -0.00     0.03   0.05  -0.03
   5   6     0.06  -0.33  -0.00     0.12  -0.14  -0.00    -0.03   0.09  -0.02
   6   6     0.45   0.00  -0.00    -0.00   0.21  -0.00    -0.05   0.00   0.00
   7   1    -0.21   0.23   0.00    -0.26   0.09   0.00     0.01  -0.04   0.02
   8   1    -0.35  -0.17   0.02     0.43   0.18  -0.02    -0.07  -0.06   0.04
   9   1    -0.35   0.17   0.01    -0.43   0.18   0.01    -0.08   0.07   0.04
  10   1    -0.21  -0.23   0.00     0.26   0.09  -0.00     0.01   0.04   0.02
  11   1     0.13   0.00  -0.00    -0.00   0.40  -0.00    -0.02   0.00   0.01
  12   8    -0.01  -0.00  -0.01     0.00  -0.01   0.00    -0.30  -0.00  -0.25
  13   1     0.03   0.00   0.01    -0.00  -0.02  -0.00     0.77   0.00   0.29
                     19                     20                     21
                        a                      a                      a 
 Frequencies --  1180.4816              1181.1015              1246.0607
 Red. masses --     1.4181                 2.0529                 9.0185
 Frc consts  --     0.0000                 0.0000                 0.0000
 IR Inten    --     0.0079                 0.1894                 1.1073
 Raman Activ --     0.0000                 0.0000                 0.0000
 Depolar     --     0.0000                 0.0000                 0.0000
 Atom AN      X      Y      Z        X      Y      Z        X      Y      Z
   1   6    -0.02   0.03  -0.00    -0.06   0.16  -0.00     0.13   0.17  -0.00
   2   6    -0.11  -0.00   0.00     0.03   0.07  -0.00    -0.20  -0.00  -0.00
   3   6     0.00   0.05  -0.00    -0.12   0.00   0.06    -0.63  -0.00   0.07
   4   6     0.10   0.00  -0.00     0.04  -0.07  -0.00    -0.20   0.01  -0.00
   5   6     0.03   0.04   0.00    -0.06  -0.16  -0.00     0.13  -0.17  -0.00
   6   6    -0.00  -0.09   0.00     0.02  -0.00  -0.00     0.11  -0.00  -0.00
   7   1    -0.36   0.21   0.00    -0.38   0.25   0.01     0.30  -0.10   0.00
   8   1     0.10   0.08  -0.00     0.41   0.26  -0.01     0.06   0.08   0.00
   9   1    -0.12   0.09   0.00     0.41  -0.25  -0.01     0.05  -0.08   0.00
  10   1     0.38   0.23  -0.00    -0.36  -0.24   0.01     0.30   0.10   0.00
  11   1    -0.00  -0.74   0.00     0.01  -0.02   0.00     0.04  -0.00   0.00
  12   8    -0.00   0.01   0.00     0.05   0.00  -0.05     0.32  -0.00  -0.07
  13   1    -0.01   0.00  -0.00     0.19   0.00   0.06     0.29   0.00   0.08
                     22                     23                     24
                        a                      a                      a 
 Frequencies --  1270.6239              1312.1248              1436.9614
 Red. masses --     3.9667                11.6040                 8.9406
 Frc consts  --     0.0000                 0.0000                 0.0000
 IR Inten    --     0.0899                 0.0259                 0.0776
 Raman Activ --     0.0000                 0.0000                 0.0000
 Depolar     --     0.0000                 0.0000                 0.0000
 Atom AN      X      Y      Z        X      Y      Z        X      Y      Z
   1   6    -0.13   0.15   0.00    -0.30   0.17   0.00     0.37   0.05  -0.00
   2   6    -0.13   0.00   0.00     0.37   0.23  -0.01    -0.28   0.13   0.00
   3   6     0.00  -0.39  -0.00     0.00  -0.39  -0.00    -0.00  -0.38  -0.00
   4   6     0.13   0.00  -0.00    -0.37   0.23   0.01     0.28   0.13  -0.00
   5   6     0.12   0.15  -0.00     0.30   0.17  -0.00    -0.37   0.05   0.00
   6   6    -0.00   0.08  -0.00    -0.00  -0.44   0.00    -0.00  -0.32   0.00
   7   1     0.33  -0.17  -0.00    -0.10   0.06   0.00    -0.14   0.16   0.00
   8   1     0.37   0.24  -0.01    -0.05  -0.02   0.00     0.08   0.14  -0.00
   9   1    -0.37   0.24   0.01     0.05  -0.02  -0.00    -0.08   0.14   0.00
  10   1    -0.34  -0.17   0.00     0.10   0.06  -0.00     0.14   0.16  -0.00
  11   1    -0.00  -0.25   0.00    -0.00   0.07  -0.00    -0.00   0.37  -0.00
  12   8    -0.00   0.04   0.00    -0.00  -0.01   0.00     0.00   0.04   0.00
  13   1    -0.00  -0.00  -0.00    -0.00  -0.01  -0.00    -0.00   0.01  -0.00
                     25                     26                     27
                        a                      a                      a 
 Frequencies --  1474.0166              1585.2872              1600.8264
 Red. masses --     9.1028                11.5269                11.4798
 Frc consts  --     0.0000                 0.0000                 0.0000
 IR Inten    --     0.8820                 0.2037                 0.6018
 Raman Activ --     0.0000                 0.0000                 0.0000
 Depolar     --     0.0000                 0.0000                 0.0000
 Atom AN      X      Y      Z        X      Y      Z        X      Y      Z
   1   6     0.25  -0.26  -0.00    -0.13   0.31   0.00    -0.44   0.13   0.00
   2   6     0.18   0.26  -0.00    -0.15  -0.28   0.00     0.44   0.13  -0.00
   3   6    -0.44   0.00   0.01     0.00   0.47  -0.00    -0.27   0.00   0.01
   4   6     0.18  -0.26  -0.00     0.15  -0.28  -0.00     0.44  -0.13  -0.00
   5   6     0.25   0.26  -0.00     0.13   0.31  -0.00    -0.44  -0.13   0.00
   6   6    -0.26   0.00   0.00    -0.00  -0.56   0.00     0.21  -0.00  -0.00
   7   1    -0.24   0.10   0.00     0.08   0.02  -0.00     0.07  -0.07  -0.00
   8   1    -0.23  -0.08   0.01     0.08  -0.00  -0.00    -0.08  -0.08   0.00
   9   1    -0.23   0.08   0.01    -0.08  -0.00   0.00    -0.08   0.08   0.00
  10   1    -0.24  -0.10   0.00    -0.08   0.02   0.00     0.07   0.07  -0.00
  11   1    -0.08  -0.00   0.00    -0.00   0.14  -0.00     0.05   0.00  -0.00
  12   8     0.11  -0.00  -0.01    -0.00  -0.01  -0.00     0.02  -0.00  -0.01
  13   1     0.07  -0.00   0.02     0.00  -0.00   0.00     0.03  -0.00   0.01
                     28                     29                     30
                        a                      a                      a 
 Frequencies --  3076.0074              3078.7047              3089.0415
 Red. masses --     1.7479                 1.7975                 1.8391
 Frc consts  --     0.0000                 0.0000                 0.0000
 IR Inten    --     0.0550                 0.1548                 0.3064
 Raman Activ --     0.0000                 0.0000                 0.0000
 Depolar     --     0.0000                 0.0000                 0.0000
 Atom AN      X      Y      Z        X      Y      Z        X      Y      Z
   1   6     0.07   0.13  -0.00    -0.09  -0.15   0.00    -0.02  -0.04   0.00
   2   6     0.02  -0.04   0.00    -0.04   0.07  -0.00    -0.07   0.12  -0.00
   3   6     0.00  -0.00  -0.00    -0.00   0.01  -0.00    -0.01  -0.00  -0.00
   4   6     0.02   0.04   0.00     0.04   0.07   0.00    -0.07  -0.12  -0.00
   5   6     0.07  -0.13  -0.00     0.09  -0.15  -0.00    -0.02   0.04   0.00
   6   6    -0.14   0.00   0.00    -0.00  -0.00   0.00    -0.18  -0.00   0.00
   7   1    -0.27  -0.48   0.00     0.30   0.53  -0.00     0.08   0.13  -0.00
   8   1    -0.09   0.15  -0.00     0.15  -0.25   0.00     0.25  -0.43   0.00
   9   1    -0.09  -0.14  -0.00    -0.15  -0.25  -0.00     0.24   0.41   0.00
  10   1    -0.26   0.46   0.00    -0.31   0.54   0.00     0.08  -0.15  -0.00
  11   1     0.54   0.00  -0.01     0.01   0.00  -0.00     0.63   0.00  -0.01
  12   8     0.00   0.00   0.00     0.00  -0.00   0.00     0.00  -0.00  -0.00
  13   1    -0.00  -0.00  -0.00     0.00   0.00   0.00     0.00   0.00   0.00
                     31                     32                     33
                        a                      a                      a 
 Frequencies --  3093.0798              3097.3102              3546.4323
 Red. masses --     1.8731                 1.9193                 1.8739
 Frc consts  --     0.0000                 0.0000                 0.0000
 IR Inten    --     0.3098                 0.0984                 0.1961
 Raman Activ --     0.0000                 0.0000                 0.0000
 Depolar     --     0.0000                 0.0000                 0.0000
 Atom AN      X      Y      Z        X      Y      Z        X      Y      Z
   1   6    -0.05  -0.08   0.00     0.06   0.10  -0.00     0.00   0.00   0.00
   2   6     0.09  -0.15   0.00    -0.06   0.11  -0.00    -0.00  -0.00  -0.00
   3   6     0.00   0.00   0.00    -0.01   0.00  -0.00     0.00  -0.00  -0.00
   4   6    -0.09  -0.15  -0.00    -0.07  -0.11  -0.00    -0.00   0.00  -0.00
   5   6     0.04  -0.07  -0.00     0.06  -0.10  -0.00     0.00  -0.00   0.00
   6   6    -0.01   0.00   0.00     0.15   0.00  -0.00     0.00   0.00  -0.00
   7   1     0.15   0.26  -0.00    -0.19  -0.33   0.00    -0.00  -0.00   0.00
   8   1    -0.31   0.53  -0.00     0.22  -0.37   0.00     0.00  -0.00  -0.00
   9   1     0.31   0.53   0.00     0.23   0.39   0.00     0.00   0.00  -0.00
  10   1    -0.14   0.24   0.00    -0.19   0.34   0.00    -0.00   0.00   0.00
  11   1     0.02  -0.00  -0.00    -0.49  -0.00   0.00    -0.00   0.00  -0.00
  12   8    -0.00   0.00  -0.00     0.00   0.00   0.00     0.09  -0.00  -0.22
  13   1     0.00  -0.00   0.00     0.00  -0.00  -0.00    -0.38   0.01   0.90
