 Entering Gaussian System
 *********************************************
 Gaussian 98:
 frequency output generated by the xtb code
 *********************************************
                         Standard orientation:
 --------------------------------------------------------------------
  Center     Atomic     Atomic              Coordinates (Angstroms)
  Number     Number      Type              X           Y           Z
 --------------------------------------------------------------------
    1          6             0       -0.008271   -0.073437   -0.001295
    2          6             0        1.374879   -0.077536   -0.015604
    3          6             0        2.069890    1.125086   -0.023062
    4          6             0        1.374461    2.327445   -0.016616
    5          6             0       -0.008690    2.322894   -0.002224
    6          6             0       -0.702125    1.124611    0.003236
    7          1             0       -0.545628   -1.010402    0.006812
    8          1             0        1.927532   -1.005272   -0.013131
    9          1             0        1.926878    3.255305   -0.015351
   10          1             0       -0.546374    3.259672    0.004521
   11          1             0       -1.781888    1.124427    0.013727
   12          8             0        3.452309    1.125649    0.020114
   13          1             0        3.815133    1.119537   -0.870771
 --------------------------------------------------------------------
     1 basis functions        1 primitive gaussians
     1 alpha electrons        1 beta electrons
 
 Harmonic frequencies (cm**-1), IR intensities (KM/Mole),
 Raman scattering activities (A**4/amu), Raman depolarization ratios,
 reduced masses (AMU), force constants (mDyne/A) and normal coordinates:
                      1                      2                      3
                        a                      a                      a 
 Frequencies --  -418.5763               214.0661               374.4862
 Red. masses --    99.0000                99.0000                99.0000
 Frc consts  --    99.0000                99.0000                99.0000
 IR Inten    --    99.0000                99.0000                99.0000
 Raman Activ --     0.0000                 0.0000                 0.0000
 Depolar     --     0.0000                 0.0000                 0.0000
 Atom AN      X      Y      Z        X      Y      Z        X      Y      Z
   1   6    -0.00   0.00   0.03     0.00   0.00  -0.01    -0.02   0.01  -0.42
   2   6    -0.00   0.01   0.06    -0.00  -0.00  -0.40    -0.01  -0.05   0.42
   3   6    -0.00   0.00  -0.00    -0.00  -0.00  -0.24    -0.00  -0.06  -0.00
   4   6     0.00   0.01  -0.06    -0.00  -0.00  -0.40     0.01  -0.05  -0.42
   5   6     0.00   0.00  -0.03     0.00   0.00  -0.01     0.02   0.01   0.42
   6   6     0.00   0.00  -0.00     0.00   0.00   0.43     0.00   0.02  -0.00
   7   1    -0.00   0.00   0.01     0.00  -0.00   0.02    -0.02   0.01  -0.26
   8   1     0.01   0.01   0.03    -0.00  -0.00  -0.16    -0.01  -0.02   0.26
   9   1    -0.01   0.01  -0.03    -0.00   0.00  -0.16     0.01  -0.02  -0.26
  10   1     0.00   0.00  -0.01     0.00   0.00   0.02     0.02   0.01   0.26
  11   1    -0.00   0.00   0.00     0.00   0.00   0.28     0.00   0.01  -0.00
  12   8     0.00  -0.27   0.00    -0.03   0.00   0.50    -0.00   0.11  -0.00
  13   1    -0.00   0.96  -0.01     0.14   0.00   0.19     0.00  -0.01   0.00
                      4                      5                      6
                        a                      a                      a 
 Frequencies --   465.1612               652.3725               753.0383
 Red. masses --    99.0000                99.0000                99.0000
 Frc consts  --    99.0000                99.0000                99.0000
 IR Inten    --    99.0000                99.0000                99.0000
 Raman Activ --     0.0000                 0.0000                 0.0000
 Depolar     --     0.0000                 0.0000                 0.0000
 Atom AN      X      Y      Z        X      Y      Z        X      Y      Z
   1   6     0.00  -0.00   0.28    -0.00  -0.00  -0.38    -0.00  -0.00  -0.14
   2   6     0.00  -0.00   0.02     0.00  -0.00   0.34    -0.00  -0.00  -0.18
   3   6    -0.01   0.00  -0.63    -0.01  -0.00  -0.45    -0.00   0.00   0.30
   4   6     0.00   0.00   0.02     0.00   0.00   0.34    -0.00   0.00  -0.18
   5   6     0.00   0.00   0.28    -0.00   0.00  -0.38    -0.00   0.00  -0.14
   6   6    -0.00  -0.00  -0.39     0.01   0.00   0.34    -0.00  -0.00  -0.16
   7   1     0.00   0.00   0.27    -0.00  -0.00  -0.05     0.00   0.00   0.39
   8   1     0.00   0.00   0.17     0.00   0.00   0.23     0.01   0.00   0.33
   9   1     0.00  -0.00   0.17     0.00  -0.00   0.23     0.01  -0.00   0.33
  10   1     0.00  -0.00   0.27    -0.00   0.00  -0.05     0.00  -0.00   0.39
  11   1    -0.00  -0.00  -0.16     0.00   0.00   0.22     0.00   0.00   0.47
  12   8    -0.05  -0.00   0.15    -0.03  -0.00  -0.00     0.05   0.00  -0.03
  13   1     0.18   0.00   0.12     0.11   0.00   0.05    -0.15  -0.00  -0.07
                      7                      8                      9
                        a                      a                      a 
 Frequencies --   875.3178               896.4523               927.7708
 Red. masses --    99.0000                99.0000                99.0000
 Frc consts  --    99.0000                99.0000                99.0000
 IR Inten    --    99.0000                99.0000                99.0000
 Raman Activ --     0.0000                 0.0000                 0.0000
 Depolar     --     0.0000                 0.0000                 0.0000
 Atom AN      X      Y      Z        X      Y      Z        X      Y      Z
   1   6     0.00   0.00   0.21     0.00  -0.00  -0.04     0.00   0.00   0.28
   2   6     0.00   0.00   0.24    -0.00   0.00   0.24    -0.00  -0.00  -0.25
   3   6     0.00  -0.00   0.00     0.00  -0.00  -0.06    -0.00   0.00  -0.00
   4   6    -0.00   0.00  -0.24    -0.00  -0.00   0.24     0.00  -0.00   0.25
   5   6    -0.00   0.00  -0.21     0.00   0.00  -0.04    -0.00  -0.00  -0.28
   6   6     0.00  -0.00  -0.00     0.00  -0.00  -0.33    -0.00   0.00  -0.00
   7   1    -0.00  -0.00  -0.42     0.00   0.00   0.14    -0.01  -0.00  -0.45
   8   1    -0.01  -0.01  -0.47    -0.01  -0.01  -0.47     0.01   0.01   0.40
   9   1     0.01  -0.01   0.47    -0.01   0.01  -0.47    -0.01   0.01  -0.40
  10   1     0.00  -0.00   0.42     0.00  -0.00   0.14     0.01   0.00   0.45
  11   1     0.00  -0.00   0.00     0.01   0.00   0.53    -0.00   0.00   0.00
  12   8    -0.00   0.00  -0.00    -0.02  -0.00   0.01     0.00   0.00   0.00
  13   1     0.00  -0.00   0.00     0.06   0.00   0.03    -0.00  -0.01   0.00
                     10                     11                     12
                        a                      a                      a 
 Frequencies --   930.6738               382.3392               499.7577
 Red. masses --    99.0000                99.0000                99.0000
 Frc consts  --    99.0000                99.0000                99.0000
 IR Inten    --    99.0000                99.0000                99.0000
 Raman Activ --     0.0000                 0.0000                 0.0000
 Depolar     --     0.0000                 0.0000                 0.0000
 Atom AN      X      Y      Z        X      Y      Z        X      Y      Z
   1   6     0.00  -0.00   0.22     0.14  -0.06  -0.07    -0.15   0.21   0.00
   2   6    -0.00  -0.00  -0.05     0.09   0.33   0.06    -0.09   0.23   0.00
   3   6    -0.00  -0.00  -0.06    -0.00   0.36   0.00     0.36  -0.00  -0.01
   4   6    -0.00   0.00  -0.05    -0.09   0.33  -0.06    -0.09  -0.23   0.00
   5   6     0.00   0.00   0.22    -0.14  -0.06   0.06    -0.15  -0.21   0.00
   6   6    -0.00  -0.00  -0.27    -0.00  -0.15   0.00    -0.48  -0.00   0.00
   7   1    -0.01  -0.00  -0.47     0.10  -0.05  -0.04     0.03   0.02   0.00
   8   1     0.01   0.00   0.21     0.11   0.14   0.04    -0.12   0.01   0.00
   9   1     0.01  -0.00   0.21    -0.11   0.14  -0.04    -0.12  -0.01   0.00
  10   1    -0.01   0.00  -0.47    -0.10  -0.05   0.04     0.03  -0.02   0.00
  11   1     0.00   0.00   0.54     0.00  -0.07   0.00    -0.14  -0.00   0.00
  12   8    -0.00  -0.00  -0.01     0.00  -0.64   0.00     0.56   0.00  -0.00
  13   1     0.02   0.00   0.01    -0.00  -0.20  -0.00     0.14  -0.00   0.00
                     13                     14                     15
                        a                      a                      a 
 Frequencies --   591.1242               819.1142               988.5457
 Red. masses --    99.0000                99.0000                99.0000
 Frc consts  --    99.0000                99.0000                99.0000
 IR Inten    --    99.0000                99.0000                99.0000
 Raman Activ --     0.0000                 0.0000                 0.0000
 Depolar     --     0.0000                 0.0000                 0.0000
 Atom AN      X      Y      Z        X      Y      Z        X      Y      Z
   1   6    -0.37  -0.34   0.00    -0.25  -0.39   0.01    -0.03  -0.14  -0.00
   2   6    -0.34   0.24   0.00    -0.17  -0.17   0.00    -0.18   0.55  -0.00
   3   6     0.00   0.13  -0.00    -0.00  -0.00  -0.01     0.15  -0.00   0.01
   4   6     0.34   0.24  -0.00    -0.17   0.17   0.00    -0.18  -0.55  -0.00
   5   6     0.37  -0.34  -0.00    -0.25   0.39   0.01    -0.03   0.14  -0.00
   6   6     0.00  -0.17   0.00     0.31   0.00  -0.00     0.38   0.00  -0.00
   7   1    -0.06  -0.12   0.00    -0.18  -0.05  -0.00     0.08  -0.08  -0.00
   8   1    -0.05   0.09   0.00    -0.02  -0.04  -0.00     0.01   0.19   0.01
   9   1     0.05   0.09  -0.00    -0.02   0.04  -0.00     0.01  -0.19   0.01
  10   1     0.06  -0.12  -0.00    -0.18   0.05  -0.00     0.08   0.08   0.00
  11   1    -0.00   0.12   0.00     0.08  -0.00  -0.01     0.10   0.00  -0.00
  12   8    -0.00   0.16  -0.00     0.52   0.00   0.00    -0.17  -0.00  -0.01
  13   1     0.00   0.04   0.00     0.11  -0.00  -0.01    -0.02   0.00   0.01
                     16                     17                     18
                        a                      a                      a 
 Frequencies --  1141.7012              1075.8966              1109.1510
 Red. masses --    99.0000                99.0000                99.0000
 Frc consts  --    99.0000                99.0000                99.0000
 IR Inten    --    99.0000                99.0000                99.0000
 Raman Activ --     0.0000                 0.0000                 0.0000
 Depolar     --     0.0000                 0.0000                 0.0000
 Atom AN      X      Y      Z        X      Y      Z        X      Y      Z
   1   6    -0.03  -0.09  -0.02     0.06   0.33  -0.00    -0.12  -0.14   0.00
   2   6     0.03  -0.05  -0.03    -0.16  -0.00  -0.00     0.19  -0.15   0.00
   3   6     0.21  -0.00   0.26     0.03   0.00   0.01    -0.00   0.13  -0.00
   4   6     0.03   0.05  -0.03    -0.16   0.00  -0.00    -0.19  -0.15  -0.00
   5   6    -0.03   0.09  -0.02     0.06  -0.33  -0.00     0.12  -0.14  -0.00
   6   6    -0.05   0.00   0.00     0.45   0.00  -0.00    -0.00   0.21  -0.00
   7   1     0.01  -0.04   0.02    -0.21   0.23   0.00    -0.26   0.09   0.00
   8   1    -0.07  -0.06   0.04    -0.35  -0.17   0.02     0.43   0.18  -0.02
   9   1    -0.08   0.07   0.04    -0.35   0.17   0.01    -0.43   0.18   0.01
  10   1     0.01   0.04   0.02    -0.21  -0.23   0.00     0.26   0.09  -0.00
  11   1    -0.02   0.00   0.01     0.13   0.00  -0.00    -0.00   0.40  -0.00
  12   8    -0.30  -0.00  -0.25    -0.01  -0.00  -0.01     0.00  -0.01   0.00
  13   1     0.77   0.00   0.29     0.03   0.00   0.01    -0.00  -0.02  -0.00
                     19                     20                     21
                        a                      a                      a 
 Frequencies --  1181.1015              1180.4816              1246.0607
 Red. masses --    99.0000                99.0000                99.0000
 Frc consts  --    99.0000                99.0000                99.0000
 IR Inten    --    99.0000                99.0000                99.0000
 Raman Activ --     0.0000                 0.0000                 0.0000
 Depolar     --     0.0000                 0.0000                 0.0000
 Atom AN      X      Y      Z        X      Y      Z        X      Y      Z
   1   6    -0.06   0.16  -0.00    -0.02   0.03  -0.00     0.13   0.17  -0.00
   2   6     0.03   0.07  -0.00    -0.11  -0.00   0.00    -0.20  -0.00  -0.00
   3   6    -0.12   0.00   0.06     0.00   0.05  -0.00    -0.63  -0.00   0.07
   4   6     0.04  -0.07  -0.00     0.10   0.00  -0.00    -0.20   0.01  -0.00
   5   6    -0.06  -0.16  -0.00     0.03   0.04   0.00     0.13  -0.17  -0.00
   6   6     0.02  -0.00  -0.00    -0.00  -0.09   0.00     0.11  -0.00  -0.00
   7   1    -0.38   0.25   0.01    -0.36   0.21   0.00     0.30  -0.10   0.00
   8   1     0.41   0.26  -0.01     0.10   0.08  -0.00     0.06   0.08   0.00
   9   1     0.41  -0.25  -0.01    -0.12   0.09   0.00     0.05  -0.08   0.00
  10   1    -0.36  -0.24   0.01     0.38   0.23  -0.00     0.30   0.10   0.00
  11   1     0.01  -0.02   0.00    -0.00  -0.74   0.00     0.04  -0.00   0.00
  12   8     0.05   0.00  -0.05    -0.00   0.01   0.00     0.32  -0.00  -0.07
  13   1     0.19   0.00   0.06    -0.01   0.00  -0.00     0.29   0.00   0.08
                     22                     23                     24
                        a                      a                      a 
 Frequencies --  1270.6239              1312.1248              1436.9614
 Red. masses --    99.0000                99.0000                99.0000
 Frc consts  --    99.0000                99.0000                99.0000
 IR Inten    --    99.0000                99.0000                99.0000
 Raman Activ --     0.0000                 0.0000                 0.0000
 Depolar     --     0.0000                 0.0000                 0.0000
 Atom AN      X      Y      Z        X      Y      Z        X      Y      Z
   1   6    -0.13   0.15   0.00    -0.30   0.17   0.00     0.37   0.05  -0.00
   2   6    -0.13   0.00   0.00     0.37   0.23  -0.01    -0.28   0.13   0.00
   3   6     0.00  -0.39  -0.00     0.00  -0.39  -0.00    -0.00  -0.38  -0.00
   4   6     0.13   0.00  -0.00    -0.37   0.23   0.01     0.28   0.13  -0.00
   5   6     0.12   0.15  -0.00     0.30   0.17  -0.00    -0.37   0.05   0.00
   6   6    -0.00   0.08  -0.00    -0.00  -0.44   0.00    -0.00  -0.32   0.00
   7   1     0.33  -0.17  -0.00    -0.10   0.06   0.00    -0.14   0.16   0.00
   8   1     0.37   0.24  -0.01    -0.05  -0.02   0.00     0.08   0.14  -0.00
   9   1    -0.37   0.24   0.01     0.05  -0.02  -0.00    -0.08   0.14   0.00
  10   1    -0.34  -0.17   0.00     0.10   0.06  -0.00     0.14   0.16  -0.00
  11   1    -0.00  -0.25   0.00    -0.00   0.07  -0.00    -0.00   0.37  -0.00
  12   8    -0.00   0.04   0.00    -0.00  -0.01   0.00     0.00   0.04   0.00
  13   1    -0.00  -0.00  -0.00    -0.00  -0.01  -0.00    -0.00   0.01  -0.00
                     25                     26                     27
                        a                      a                      a 
 Frequencies --  1474.0166              1585.2872              1600.8264
 Red. masses --    99.0000                99.0000                99.0000
 Frc consts  --    99.0000                99.0000                99.0000
 IR Inten    --    99.0000                99.0000                99.0000
 Raman Activ --     0.0000                 0.0000                 0.0000
 Depolar     --     0.0000                 0.0000                 0.0000
 Atom AN      X      Y      Z        X      Y      Z        X      Y      Z
   1   6     0.25  -0.26  -0.00    -0.13   0.31   0.00    -0.44   0.13   0.00
   2   6     0.18   0.26  -0.00    -0.15  -0.28   0.00     0.44   0.13  -0.00
   3   6    -0.44   0.00   0.01     0.00   0.47  -0.00    -0.27   0.00   0.01
   4   6     0.18  -0.26  -0.00     0.15  -0.28  -0.00     0.44  -0.13  -0.00
   5   6     0.25   0.26  -0.00     0.13   0.31  -0.00    -0.44  -0.13   0.00
   6   6    -0.26   0.00   0.00    -0.00  -0.56   0.00     0.21  -0.00  -0.00
   7   1    -0.24   0.10   0.00     0.08   0.02  -0.00     0.07  -0.07  -0.00
   8   1    -0.23  -0.08   0.01     0.08  -0.00  -0.00    -0.08  -0.08   0.00
   9   1    -0.23   0.08   0.01    -0.08  -0.00   0.00    -0.08   0.08   0.00
  10   1    -0.24  -0.10   0.00    -0.08   0.02   0.00     0.07   0.07  -0.00
  11   1    -0.08  -0.00   0.00    -0.00   0.14  -0.00     0.05   0.00  -0.00
  12   8     0.11  -0.00  -0.01    -0.00  -0.01  -0.00     0.02  -0.00  -0.01
  13   1     0.07  -0.00   0.02     0.00  -0.00   0.00     0.03  -0.00   0.01
                     28                     29                     30
                        a                      a                      a 
 Frequencies --  3076.0074              3078.7047              3089.0415
 Red. masses --    99.0000                99.0000                99.0000
 Frc consts  --    99.0000                99.0000                99.0000
 IR Inten    --    99.0000                99.0000                99.0000
 Raman Activ --     0.0000                 0.0000                 0.0000
 Depolar     --     0.0000                 0.0000                 0.0000
 Atom AN      X      Y      Z        X      Y      Z        X      Y      Z
   1   6     0.07   0.13  -0.00    -0.09  -0.15   0.00    -0.02  -0.04   0.00
   2   6     0.02  -0.04   0.00    -0.04   0.07  -0.00    -0.07   0.12  -0.00
   3   6     0.00  -0.00  -0.00    -0.00   0.01  -0.00    -0.01  -0.00  -0.00
   4   6     0.02   0.04   0.00     0.04   0.07   0.00    -0.07  -0.12  -0.00
   5   6     0.07  -0.13  -0.00     0.09  -0.15  -0.00    -0.02   0.04   0.00
   6   6    -0.14   0.00   0.00    -0.00  -0.00   0.00    -0.18  -0.00   0.00
   7   1    -0.27  -0.48   0.00     0.30   0.53  -0.00     0.08   0.13  -0.00
   8   1    -0.09   0.15  -0.00     0.15  -0.25   0.00     0.25  -0.43   0.00
   9   1    -0.09  -0.14  -0.00    -0.15  -0.25  -0.00     0.24   0.41   0.00
  10   1    -0.26   0.46   0.00    -0.31   0.54   0.00     0.08  -0.15  -0.00
  11   1     0.54   0.00  -0.01     0.01   0.00  -0.00     0.63   0.00  -0.01
  12   8     0.00   0.00   0.00     0.00  -0.00   0.00     0.00  -0.00  -0.00
  13   1    -0.00  -0.00  -0.00     0.00   0.00   0.00     0.00   0.00   0.00
                     31                     32                     33
                        a                      a                      a 
 Frequencies --  3093.0798              3097.3102              3546.4323
 Red. masses --    99.0000                99.0000                99.0000
 Frc consts  --    99.0000                99.0000                99.0000
 IR Inten    --    99.0000                99.0000                99.0000
 Raman Activ --     0.0000                 0.0000                 0.0000
 Depolar     --     0.0000                 0.0000                 0.0000
 Atom AN      X      Y      Z        X      Y      Z        X      Y      Z
   1   6    -0.05  -0.08   0.00     0.06   0.10  -0.00     0.00   0.00   0.00
   2   6     0.09  -0.15   0.00    -0.06   0.11  -0.00    -0.00  -0.00  -0.00
   3   6     0.00   0.00   0.00    -0.01   0.00  -0.00     0.00  -0.00  -0.00
   4   6    -0.09  -0.15  -0.00    -0.07  -0.11  -0.00    -0.00   0.00  -0.00
   5   6     0.04  -0.07  -0.00     0.06  -0.10  -0.00     0.00  -0.00   0.00
   6   6    -0.01   0.00   0.00     0.15   0.00  -0.00     0.00   0.00  -0.00
   7   1     0.15   0.26  -0.00    -0.19  -0.33   0.00    -0.00  -0.00   0.00
   8   1    -0.31   0.53  -0.00     0.22  -0.37   0.00     0.00  -0.00  -0.00
   9   1     0.31   0.53   0.00     0.23   0.39   0.00     0.00   0.00  -0.00
  10   1    -0.14   0.24   0.00    -0.19   0.34   0.00    -0.00   0.00   0.00
  11   1     0.02  -0.00  -0.00    -0.49  -0.00   0.00    -0.00   0.00  -0.00
  12   8    -0.00   0.00  -0.00     0.00   0.00   0.00     0.09  -0.00  -0.22
  13   1     0.00  -0.00   0.00     0.00  -0.00  -0.00    -0.38   0.01   0.90
