 
        ______________________________________
       |                                      |
       |           ==================         |
       |                 x T B                |
       |           ==================         |
       |               S. Grimme              |
       |        Universitaet Bonn, MCTC       |
       |         2015-18, Version 5.8.1       |
       |      Sun May  6 11:39:08 CEST 2018   |
       |______________________________________|
 
        This code comes without any warranty
        for non-commercial, academia use only.
        Preliminary GFN2 test version.
        Test license to: Dow Chemical Company
        Cite GFN-xTB work as:
        S. Grimme, C. Bannwarth, P. Shushkov
        JCTC, 13 (2017) 1989-2009
        for GFN2:
        C. Bannwarth, S. Ehlert, S. Grimme
        to be published.
        sTDA-xTB:
        S. Grimme  &  C. Bannwarth, JCP 145 (2016) 054103
        in the mass-spec context additionally:
        V. Asgeirsson, C.Bauer, S. Grimme, Chem. Sci. 8 (2017) 4879
 
        with help from
        P. Shushkov, G. Brandenburg, S. Dohm, J. Pisarek,
        F. März, M. Checinski, S. Ehrlich, S. Spicher, 
        P. Pracht, E. Caldeweyher, S. Ehlert, and C. Bannwarth.
 
        usage        :
        xtb <coord_file> [options]
        where <coord_file> is a valid file of TM)
        (*coord, Bohr) or xmol (*xyz, Angstroem)
        format.

        options:
        -chrg <int>   : molecular charge
        -uhf  <int>   : # of unpaired electrons(=2*S)
        -nox          : skip second, extended part in sTDA-xTB
        -pop          : do population analysis
                      : (default for -nox)
        -mowr <real>  : cut MO write above (def.3 Eh)
        -molden       : write formatted molden file
        -parx <file>  : read parameters for sTDA-xTB
                        calc (def:~/.param_stda2.xtb)
        -parv <file>  : read parameters for vTB part in
                        sTDA-xTB (def: ~/.param_stda1.xtb)
        -xtemp <real> : el. temp for xTB (def. 0 K)
        -etemp <real> : el. temp for GFN (def. 300 K)
        -fod          : calculate the FOD and write
                        molden.input file with
                        appropriate occupations
                        for plotting. Def. T=12500 K
 
        -gfn1         : use GFN-xTB
        -gfn2         : use GFN2-xTB
        -gfn2d3       : GFN2-xTB with D3 instead of D4
        -grad         : GFNn-xTB gradient
        -acc <real>   : GFNn-xTB accuracy (def. 1.0)
        -opt [level]  : optimize at GFNn-xTB
                      : level=crude,vloose,loose,
                      :       tight,vtight
        -hess         : compute Hessian at GFNn-xTB
        -ohess        : optimize and compute Hessian
        -omd          : optimize and do MD
        -siman        : conformational search
        -screen       : opt. loop over ensemble
        -gmd          : annealed MD for GMD procedure
        -modef        : vib mode following
        -gbsa [string1] [string2]
                        use GBSA implicit solvent
                        for solvent [string1] and
                        solvation state [string2]=
                        reference, bar1M (default=1M)
        additional GFN/opt/MD/siman options read from
        $XTBHOME/.xtbrc or $set in coordinate file
 
       spin and charge state information can be on:
       <.CHRG> (charge) and <.UHF> (=nalpha-nbeta)
       -uhf and -chrg override the file info.
       useful machine settings:
       setenv MKL_NUM_THREADS <NCORE_ON_YOUR_MACHINE>
       setenv OMP_STACKSIZE 500m
       limit stacksize unlimited
 
       total energies in Eh, gaps/HL energies in eV
       please read REVISION and HOWTO files carefully
          72  days left until this code expires
 =============================
  # OMP threads =           2
 =============================
 
 xtbhome directory:/home/ua25450/dftb/
 
 argument            1 :-ohess
 
 name of molecule           :
 comment line               :
 number of atoms            :     9
 number of electrons        :    20
 charge                     :  0
 spin                       : 0.0
 first test random number   :  0.6867
 
 
 -----------------------------------------
  G F N (Geometry, Frequency, Non-covalent)
        parametrization, gfnver=           3
     D4 dispersion model
 /home/ua25450/dftb/.param_gfn2.xtb
 -----------------------------------------
      method parameters     
 k(s)        :  1.8500
 k(p)        :  2.2300
 k(d)        :  2.2300
 k(f)        :  2.0000
 kEN (H0ij)  : -2.0000
 D3 a1       :  0.5200
 D3 a2       :  5.0000
 D3 s8       :  2.7000
 D3atm       :  5.0000
 alphaj      :  2.0000
 
     -------------------------
     ! NO SOLVENT MODEL USED !
     -------------------------
 
 doing EN charges ...
 sum q : -0.2220446D-15
 point charge moment (au)
     X       Y       Z   
   0.1464   0.2069  -0.0575  total (Debye):    0.661
 
            Z     q(EN)     CN     RAES       Cart. coordinates
     1  C   4.0   -0.13    4.00    3.62    -6.89842     0.40873     0.03234
     2  H   1.0    0.05    1.00    1.43    -6.23124    -1.53280     0.03363
     3  H   1.0    0.04    1.00    1.43    -6.22687     1.35817    -1.65929
     4  H   1.0    0.05    1.00    1.43    -8.95130     0.39085     0.03348
     5  C   4.0   -0.03    3.98    3.59    -5.93820     1.76669     2.37536
     6  H   1.0    0.04    1.00    1.43    -3.85925     1.79033     2.37555
     7  H   1.0    0.04    1.00    1.43    -6.60839     3.73479     2.37523
     8  O   6.0   -0.17    2.03    1.83    -6.84873     0.47971     4.52999
     9  H   1.0    0.11    1.02    1.43    -6.25389     1.32093     6.02811
 
  Z AO/shell   Hii/eV     exponent
  1     Wed Apr 25 08:07:45 CEST 2018   EN: 2.200 GM2: 0.406  GM3: 0.0800  RAES: 1.40
     1s    -10.707211    1.230000
  6     Wed Apr 25 08:07:45 CEST 2018   EN: 2.550 GM2: 0.538  GM3: 0.1500  RAES: 3.00
     2s    -13.970922    2.096432
     2p    -10.063292    1.800000
  8     Wed Apr 25 08:07:45 CEST 2018   EN: 3.440 GM2: 0.452  GM3:-0.0517  RAES: 1.80
     2s    -20.229985    2.439742
     2p    -15.503117    2.137023
 
Refinement of some symmetry elements was terminated before convergence was reached.
Some symmetry elements may remain unidentified.
Molecule has the following symmetry elements: (sigma) 
It seems to be the Cs point group
cs  symmetry found (for desy threshold:  0.10E+00) used in thermo
 no old-style atom pair restraing (fixing) potential
 
             =======================================
             |                                     |
             |        S C C  calculation           |
             |                                     |
             =======================================
 #proc     :            2
 Ncao      :           18
 Nao       :           18
 Nel       :           20
 T(el)     :   300.0
 intcut    :    25.0
 scfconv   :  0.100E-05
   qconv   :  0.100E-03
 intneglect:  0.100E-07
 broydamp  :      0.400
 Nshell    :           12
 iter      E             dE          RMSdq      gap      omega  full diag
   1    -11.4798117 -0.114798E+02  0.449E+00   12.77       0.0  T
   2    -11.5102231 -0.304114E-01  0.212E+00   12.61       1.0  T
   3    -11.5127341 -0.251101E-02  0.662E-01   12.50       1.0  T
   4    -11.5128824 -0.148240E-03  0.252E-01   12.50       1.0  T
   5    -11.5129340 -0.516512E-04  0.653E-02   12.54       1.0  T
   6    -11.5129373 -0.333138E-05  0.284E-02   12.55       1.2  T
   7    -11.5129376 -0.210643E-06  0.387E-03   12.55       8.6  T
   8    -11.5129376 -0.261000E-08  0.146E-03   12.55      22.9  T
   9    -11.5129376 -0.931529E-08  0.248E-04   12.55     134.2  T
  10    -11.5129376 -0.584013E-10  0.891E-05   12.55     374.0  T
speedup  1.00
cpu  time for SCC    0.00 s
wall time for SCC    0.00 s

          eigenvalues
 #    :           1          2          3          4          5          6          7          8
 occ. :        2.000      2.000      2.000      2.000      2.000      2.000      2.000      2.000
 eps  :       -18.646    -17.042    -15.770    -15.432    -14.439    -13.773    -12.675    -12.505
 #    :           9         10         11         12         13         14         15         16
 occ. :        2.000      2.000      0.000      0.000      0.000      0.000      0.000      0.000
 eps  :       -12.256    -11.101      1.449      3.440      3.595      4.153      4.951      5.778
 #    :          17         18
 occ. :        0.000      0.000
 eps  :         7.193      7.370
 

   #   Z            q   n(s)   n(p)   n(d)      C6AA      α(0)    relVol
   1   6 C     -0.110  1.036  3.074  0.000    22.845     6.842     0.554
   2   1 H      0.055  0.945  0.000  0.000     2.255     2.348     0.465
   3   1 H      0.039  0.961  0.000  0.000     2.456     2.450     0.485
   4   1 H      0.055  0.945  0.000  0.000     2.255     2.348     0.465
   5   6 C      0.092  1.032  2.876  0.000    19.521     6.379     0.516
   6   1 H      0.015  0.985  0.000  0.000     2.815     2.624     0.519
   7   1 H      0.015  0.985  0.000  0.000     2.815     2.624     0.519
   8   8 O     -0.442  1.708  4.734  0.000    22.185     6.373     1.226
   9   1 H      0.283  0.717  0.000  0.000     0.716     1.328     0.263

 Mol. C6AA /au*bohr^6 :        511.731574
 Mol. C8AA /au*bohr^6 :      10179.173041
 Mol. a(0) /au        :         33.315711

 
 Wiberg/Mayer (AO) data. WBOs > 0.1 written file <wbo>
 largest (>0.05) Wiberg bond orders for each atom
           total WBO             WBO to atom ...
     1  C   3.994    C    5 1.018    H    3 0.986    H    2 0.986    H    4 0.986
     2  H   0.997    C    1 0.986
     3  H   0.998    C    1 0.986
     4  H   0.997    C    1 0.986
     5  C   3.958    C    1 1.018    O    8 0.994    H    6 0.973    H    7 0.973
     6  H   1.000    C    5 0.973
     7  H   1.000    C    5 0.973
     8  O   1.951    C    5 0.994    H    9 0.907
     9  H   0.920    O    8 0.907
 
molecular dipole:
                 x           y           z       tot (Debye)
 q only:        0.248       0.351      -0.074
   full:        0.678       0.554       0.016       1.724
molecular quadrupole (traceless):
                xx          xy          yy          xz          yz          zz
 q only:       -4.371      -3.001       1.528       2.681       2.665       2.842
  q+dip:       -6.224      -5.330       2.672       2.861       4.296       3.552
   full:       -6.643      -5.002       2.485       2.811       4.226       4.157
 SCC converged in           10  cycles
 
SCC energy    :     -11.5129376
rep           :       0.1210624
ES            :       0.0256558
AES           :       0.0028650
AXC           :       0.0021046
disp          :      -0.0027872
XB            :       0.0000000
fix           :       0.0000000
total E       :     -11.3918747
atomizationE  :       2.0194301     1267.21
(atE without considerung molecular charge,
 total energy contains solvation terms)
H-L gap (eV)  :         12.5506
 
             =======================================
             |                                     |
             |    Approximate Normal Coordinate    |
             |   Rational Function Optimization    |
             |                                     |
             =======================================
Ref. for RF algo: F.Eckert, P.Pulay, H.-J.Werner
                  J.Comput.Chem. 18 (1997) 1473.
ANC idea implemented by S. Grimme in the 2000ers (unpublished)
restraining potential by S. Ehrlich.
dumping coords to <xtbopt.coord> and <xtbopt.log
 optlevel               1
 Maxcycle             200
 Maxmicro              20
 Econv         1.000000000000000E-006
 Gconv         8.000000000000000E-004
 Maxdispl       1.00000000000000     
 Hlow          1.000000000000000E-002
 S6             20.0000000000000     
 Nvar               21

generating ANC from model Hessian ...
 Shifting diagonal of input Hessian by   0.000000000000000E+000
 Lowest  eigenvalues of input Hessian
   -0.000000   -0.000000   -0.000000    0.000000    0.000000    0.000000
    0.013525    0.026580    0.028582    0.049047    0.056195    0.073654
    0.081452    0.091383    0.135400    0.135477    0.152155    0.154336
 Highest eigenvalues
    1.047638    1.118912    1.164695    1.199534    1.274015    1.493788
 
cpu  time for ANC gen    0.01 s
wall time for ANC gen    0.01 s
................................................................................
.............................. CYCLE    1 ......................................
................................................................................
  q data taken from xtbrestart
  CAMM data taken from xtbrestart
   1    -11.5129376 -0.115129E+02  0.121E-05   12.55       0.0  T
   2    -11.5129376 -0.282441E-12  0.729E-06   12.55    4569.4  T
   3    -11.5129376 -0.319744E-13  0.380E-06   12.55    8762.7  T
speedup  1.00
cpu  time for SCC    0.00 s
wall time for SCC    0.00 s
speedup  1.00
cpu  time for grad    0.00 s
wall time for grad    0.00 s
 E :    -11.39187473  G :  0.000187    pred/act E change:  0.000D+00  0.504D-10
Maxdispl :   0.0003   ||displ|| :   0.0006   Lambda : -0.584D-07
Largest |displ|/coords:  0.0003 (   5)  0.0002 (  13)  0.0002 (   6)
................................................................................
.............................. CYCLE    2 ......................................
................................................................................
   1    -11.5129217 -0.115129E+02  0.615E-04   12.55       0.0  T
   2    -11.5129217 -0.339284E-10  0.372E-04   12.55      89.5  T
   3    -11.5129217 -0.112408E-10  0.294E-05   12.55    1134.9  T
speedup  1.00
cpu  time for SCC    0.00 s
wall time for SCC    0.00 s
speedup  1.00
cpu  time for grad    0.00 s
wall time for grad    0.00 s
 E :    -11.39187477  G :  0.000093    pred/act E change:  0.000D+00 -0.405D-07
Maxdispl :   0.0002   ||displ|| :   0.0003   Lambda : -0.163D-07
Largest |displ|/coords:  0.0002 (   8)  0.0001 (  13)  0.0001 (   5)
ancopt converged in          2 cycles
total energy gain (kcal):     -0.0000
================
 final structure:
================
     9
        -11.39187477
C          -3.65049312112763    0.21627945433353    0.01707995063445
H          -3.29739817631389   -0.81113114571238    0.01787909020526
H          -3.29506418041833    0.71877661521931   -0.87808765913109
H          -4.73684497454961    0.20686971861036    0.01779199675816
C          -3.14232863844014    0.93493951433468    1.25701829138817
H          -2.04219600628482    0.94730698312121    1.25699712395523
H          -3.49712226812624    1.97636475555964    1.25683236493505
O          -3.62415217931143    0.25390041663591    2.39713836412105
H          -3.30946925542792    0.69892447789772    3.19001882713371
 
 Bond Distances (Angstroems)
 ---------------------------
C1-H2=1.0864         C1-H3=1.0864         C1-H4=1.0864         C1-C5=1.5206         H2-C1=1.0864         H3-C1=1.0864         
H4-C1=1.0864         C5-C1=1.5206         C5-H6=1.1002         C5-H7=1.1002         C5-O8=1.4127         H6-C5=1.1002         
H7-C5=1.1002         O8-C5=1.4127         O8-H9=0.9621         H9-O8=0.9621         
 C  H  Rav=1.0919 sigma=0.0068  Rmin=1.0864  Rmax=1.1002     5
 C  C  Rav=1.5206 sigma=0.0000  Rmin=1.5206  Rmax=1.5206     1
 O  H  Rav=0.9621 sigma=0.0000  Rmin=0.9621  Rmax=0.9621     1
 O  C  Rav=1.4127 sigma=0.0000  Rmin=1.4127  Rmax=1.4127     1
 
 selected bond angles (degree)
 --------------------
H3-C1-H2=109.37                H4-C1-H2=108.47                H4-C1-H3=109.37                C5-C1-H2=109.74                
C5-C1-H3=110.12                C5-C1-H4=109.74                H6-C5-C1=109.84                H7-C5-C1=109.84                
H7-C5-H6=108.17                O8-C5-C1=108.44                O8-C5-H6=110.27                O8-C5-H7=110.27                
H9-O8-C5=109.30                
 
 selected dihedral angles (degree)
 ---------------------------------
H6-C5-C1-H2= 61.02            H6-C5-C1-H3=300.57            H6-C5-C1-H4=180.12            H7-C5-C1-H2=179.88            
H7-C5-C1-H3= 59.43            H7-C5-C1-H4=298.98            O8-C5-C1-H2=300.45            O8-C5-C1-H3=180.00            
O8-C5-C1-H4= 59.55            H9-O8-C5-C1=180.00            H9-O8-C5-H6= 59.70            H9-O8-C5-H7=300.30            
 
             =======================================
             |                                     |
             |        S C C  calculation           |
             |                                     |
             =======================================
 #proc     :            2
 Ncao      :           18
 Nao       :           18
 Nel       :           20
 T(el)     :   300.0
 intcut    :    25.0
 scfconv   :  0.100E-05
   qconv   :  0.100E-03
 intneglect:  0.100E-07
 broydamp  :      0.400
 Nshell    :           12
 iter      E             dE          RMSdq      gap      omega  full diag
   1    -11.5129217 -0.115129E+02  0.128E-05   12.55       0.0  T
   2    -11.5129217 -0.905942E-13  0.699E-06   12.55    4766.6  T
   3    -11.5129217 -0.355271E-13  0.142E-06   12.55   23459.7  T
speedup  1.00
cpu  time for SCC    0.00 s
wall time for SCC    0.00 s

          eigenvalues
 #    :           1          2          3          4          5          6          7          8
 occ. :        2.000      2.000      2.000      2.000      2.000      2.000      2.000      2.000
 eps  :       -18.646    -17.042    -15.770    -15.432    -14.439    -13.773    -12.675    -12.505
 #    :           9         10         11         12         13         14         15         16
 occ. :        2.000      2.000      0.000      0.000      0.000      0.000      0.000      0.000
 eps  :       -12.256    -11.101      1.450      3.438      3.595      4.154      4.948      5.777
 #    :          17         18
 occ. :        0.000      0.000
 eps  :         7.192      7.370
 

   #   Z            q   n(s)   n(p)   n(d)      C6AA      α(0)    relVol
   1   6 C     -0.110  1.036  3.074  0.000    22.845     6.842     0.554
   2   1 H      0.055  0.945  0.000  0.000     2.255     2.348     0.465
   3   1 H      0.039  0.961  0.000  0.000     2.456     2.450     0.485
   4   1 H      0.055  0.945  0.000  0.000     2.255     2.348     0.465
   5   6 C      0.092  1.032  2.876  0.000    19.521     6.379     0.516
   6   1 H      0.015  0.985  0.000  0.000     2.815     2.624     0.519
   7   1 H      0.015  0.985  0.000  0.000     2.815     2.624     0.519
   8   8 O     -0.442  1.708  4.734  0.000    22.185     6.373     1.226
   9   1 H      0.283  0.717  0.000  0.000     0.716     1.328     0.263

 Mol. C6AA /au*bohr^6 :        511.732575
 Mol. C8AA /au*bohr^6 :      10179.192524
 Mol. a(0) /au        :         33.315761

 
 Wiberg/Mayer (AO) data. WBOs > 0.1 written file <wbo>
 largest (>0.05) Wiberg bond orders for each atom
           total WBO             WBO to atom ...
     1  C   3.994    C    5 1.018    H    3 0.986    H    2 0.986    H    4 0.986
     2  H   0.997    C    1 0.986
     3  H   0.998    C    1 0.986
     4  H   0.997    C    1 0.986
     5  C   3.958    C    1 1.018    O    8 0.994    H    6 0.973    H    7 0.973
     6  H   1.000    C    5 0.973
     7  H   1.000    C    5 0.973
     8  O   1.951    C    5 0.994    H    9 0.907
     9  H   0.920    O    8 0.907
 
molecular dipole:
                 x           y           z       tot (Debye)
 q only:        0.248       0.351      -0.074
   full:        0.392       0.554       0.017       1.724
molecular quadrupole (traceless):
                xx          xy          yy          xz          yz          zz
 q only:       -4.370      -3.001       1.527       2.679       2.665       2.843
  q+dip:       -6.224      -5.330       2.671       2.859       4.295       3.553
   full:       -6.642      -5.002       2.484       2.808       4.225       4.158
 SCC converged in            3  cycles
 
SCC energy    :     -11.5129217
rep           :       0.1210464
ES            :       0.0256559
AES           :       0.0028647
AXC           :       0.0021053
disp          :      -0.0027872
XB            :       0.0000000
fix           :       0.0000000
total E       :     -11.3918748
atomizationE  :       2.0194301     1267.21
(atE without considerung molecular charge,
 total energy contains solvation terms)
H-L gap (eV)  :         12.5512
 !!!!!!!!!!!!!!!!!!!!!!!!!!!!!!!!!!!
 ! Note: the input coordinates are !
 ! NOT overwritten. The optimized  !
 ! ones are on file <xtbopt.coord> !
 ! (or on <xtbopt.xyz> if it was a !
 ! xyz file)                       !
 !!!!!!!!!!!!!!!!!!!!!!!!!!!!!!!!!!!
 
Refinement of some symmetry elements was terminated before convergence was reached.
Some symmetry elements may remain unidentified.
Molecule has the following symmetry elements: (sigma) 
It seems to be the Cs point group
cs  symmetry found (for desy threshold:  0.10E+00) used in thermo
  q data taken from xtbrestart
  CAMM data taken from xtbrestart
 
             =======================================
             |                                     |
             |         Numerical Hessian           |
             |                                     |
             =======================================
step length          :   0.00500
SCC accuracy         :   0.30000
Hessian scale factor :   1.00000
frozen atoms in %    :   0.00000    0
RMS gradient         :   0.00009
estimated CPU  time      0.00 min
estimated wall time      0.00 min
 
 writing file <hessian>.
 
 projected vibrational frequencies (cm-1)
eig.   :       -0.00    -0.00    -0.00    -0.00     0.00     0.00
eig.   :      202.76   293.72   394.32   837.53   930.40  1040.57
eig.   :     1128.10  1152.48  1240.09  1265.29  1365.76  1404.87
eig.   :     1474.48  1493.80  1495.76  2852.85  2885.93  3046.19
eig.   :     3051.09  3054.96  3568.34
 reduced masses (amu)
   1: 11.63   2: 11.74   3: 10.98   4:  7.20   5:  8.86   6: 12.69   7:  2.67   8:  2.03
   9:  9.99  10:  1.97  11:  8.03  12:  6.76  13:  9.64  14:  5.10  15:  3.97  16:  2.13
  17:  3.80  18:  3.66  19:  1.53  20:  1.71  21:  1.69  22:  1.98  23:  1.42  24:  1.56
  25:  1.96  26:  1.65  27:  1.87
 IR intensities (amu)
   1:  0.11   2:  0.11   3:  0.23   4:  0.10   5:  0.37   6:  0.36   7:  0.30   8:  0.46
   9:  0.28  10:  0.10  11:  0.62  12:  0.33  13:  0.97  14:  0.38  15:  0.59  16:  0.06
  17:  0.24  18:  0.20  19:  0.02  20:  0.13  21:  0.05  22:  0.41  23:  0.34  24:  0.17
  25:  0.19  26:  0.18  27:  0.14
 output can be read by thermo (or use thermo option).
 writing <g98.out> molden fake output.
 recommended (thermochemical) frequency scaling factor: 1.0
                    ==================
                    thermo calculation
                    ==================
Nvib :   21 Nimag : 0  symmetry :   cs  rot number :  1  scale factor : 1.00 sthr :  50.
omega=202.76     Gvib=    -0.629     Grot=    -0.641     Gused=    -0.629
omega=293.72     Gvib=    -0.433     Grot=    -0.532     Gused=    -0.433
 
   temp. (K)  partition function   enthalpy   heat capacity  entropy
                                   cal/mol     cal/K/mol   cal/K/mol   J/K/mol
 298.15  VIB   2.62                  971.662      7.689      5.175
         ROT  0.166E+05              888.752      2.981     22.294
         INT  0.436E+05             1860.414     10.670     27.469
         TR   0.303E+27             1481.254      4.968     37.391
         TOT                        3341.6683    15.6383    64.8603   271.3744
                     Eh         kcal/mol          kJ/mol 
ZPVE            0.778661E-01     48.8618         204.437    
H(0)-H(T)+PV    0.532529E-02     3.34167         13.9815    
H(T)            0.831914E-01     52.2034         218.418    
T*S             0.308172E-01     19.3381         80.9103    
G(T)            0.523742E-01     32.8653         137.508    
    -11.33950055  <=== TOTAL FREE ENERGY in Eh incl. el.,ZPVE,RRHO,solv. parts
 
Eat (element increment corrected) /kcal :   875.300
        -109.145  <=== HOF(298)/kcal, to be compared to exptl. data
 
 normal mode %tage of torsion character
   1:  0.00   2:  0.00   3:  0.00   4:  0.00   5:  0.00   6:  0.00   7:  0.93   8:  0.95
   9:  0.11  10:  0.30  11:  0.28  12:  0.33  13:  0.27  14:  0.33  15:  0.11  16:  0.16
  17:  0.13  18:  0.43  19:  0.29  20:  0.40  21:  0.23  22:  0.06  23:  0.01  24:  0.07
  25:  0.07  26:  0.11  27:  0.00
 recommended # of modes for mode following           4
 
speedup  0.96
cpu  time for all    0.30 s
wall time for all    0.31 s
