 
        ______________________________________
       |                                      |
       |           ==================         |
       |                 x T B                |
       |           ==================         |
       |               S. Grimme              |
       |        Universitaet Bonn, MCTC       |
       |         2015-18, Version 5.8.1       |
       |      Sun May  6 11:39:08 CEST 2018   |
       |______________________________________|
 
        This code comes without any warranty
        for non-commercial, academia use only.
        Preliminary GFN2 test version.
        Test license to: Dow Chemical Company
        Cite GFN-xTB work as:
        S. Grimme, C. Bannwarth, P. Shushkov
        JCTC, 13 (2017) 1989-2009
        for GFN2:
        C. Bannwarth, S. Ehlert, S. Grimme
        to be published.
        sTDA-xTB:
        S. Grimme  &  C. Bannwarth, JCP 145 (2016) 054103
        in the mass-spec context additionally:
        V. Asgeirsson, C.Bauer, S. Grimme, Chem. Sci. 8 (2017) 4879
 
        with help from
        P. Shushkov, G. Brandenburg, S. Dohm, J. Pisarek,
        F. März, M. Checinski, S. Ehrlich, S. Spicher, 
        P. Pracht, E. Caldeweyher, S. Ehlert, and C. Bannwarth.
 
        usage        :
        xtb <coord_file> [options]
        where <coord_file> is a valid file of TM)
        (*coord, Bohr) or xmol (*xyz, Angstroem)
        format.

        options:
        -chrg <int>   : molecular charge
        -uhf  <int>   : # of unpaired electrons(=2*S)
        -nox          : skip second, extended part in sTDA-xTB
        -pop          : do population analysis
                      : (default for -nox)
        -mowr <real>  : cut MO write above (def.3 Eh)
        -molden       : write formatted molden file
        -parx <file>  : read parameters for sTDA-xTB
                        calc (def:~/.param_stda2.xtb)
        -parv <file>  : read parameters for vTB part in
                        sTDA-xTB (def: ~/.param_stda1.xtb)
        -xtemp <real> : el. temp for xTB (def. 0 K)
        -etemp <real> : el. temp for GFN (def. 300 K)
        -fod          : calculate the FOD and write
                        molden.input file with
                        appropriate occupations
                        for plotting. Def. T=12500 K
 
        -gfn1         : use GFN-xTB
        -gfn2         : use GFN2-xTB
        -gfn2d3       : GFN2-xTB with D3 instead of D4
        -grad         : GFNn-xTB gradient
        -acc <real>   : GFNn-xTB accuracy (def. 1.0)
        -opt [level]  : optimize at GFNn-xTB
                      : level=crude,vloose,loose,
                      :       tight,vtight
        -hess         : compute Hessian at GFNn-xTB
        -ohess        : optimize and compute Hessian
        -omd          : optimize and do MD
        -siman        : conformational search
        -screen       : opt. loop over ensemble
        -gmd          : annealed MD for GMD procedure
        -modef        : vib mode following
        -gbsa [string1] [string2]
                        use GBSA implicit solvent
                        for solvent [string1] and
                        solvation state [string2]=
                        reference, bar1M (default=1M)
        additional GFN/opt/MD/siman options read from
        $XTBHOME/.xtbrc or $set in coordinate file
 
       spin and charge state information can be on:
       <.CHRG> (charge) and <.UHF> (=nalpha-nbeta)
       -uhf and -chrg override the file info.
       useful machine settings:
       setenv MKL_NUM_THREADS <NCORE_ON_YOUR_MACHINE>
       setenv OMP_STACKSIZE 500m
       limit stacksize unlimited
 
       total energies in Eh, gaps/HL energies in eV
       please read REVISION and HOWTO files carefully
          72  days left until this code expires
 =============================
  # OMP threads =           2
 =============================
 
 xtbhome directory:/home/ua25450/dftb/
 
 argument            1 :-ohess
 
 name of molecule           :
 comment line               :
 number of atoms            :    13
 number of electrons        :    30
 charge                     :  0
 spin                       : 0.0
 first test random number   :  0.6475
 
 
 -----------------------------------------
  G F N (Geometry, Frequency, Non-covalent)
        parametrization, gfnver=           3
     D4 dispersion model
 /home/ua25450/dftb/.param_gfn2.xtb
 -----------------------------------------
      method parameters     
 k(s)        :  1.8500
 k(p)        :  2.2300
 k(d)        :  2.2300
 k(f)        :  2.0000
 kEN (H0ij)  : -2.0000
 D3 a1       :  0.5200
 D3 a2       :  5.0000
 D3 s8       :  2.7000
 D3atm       :  5.0000
 alphaj      :  2.0000
 
     -------------------------
     ! NO SOLVENT MODEL USED !
     -------------------------
 
 doing EN charges ...
 sum q :  0.0000000D+00
 point charge moment (au)
     X       Y       Z   
  -0.2642  -0.3749  -0.0064  total (Debye):    1.166
 
            Z     q(EN)     CN     RAES       Cart. coordinates
     1  C   4.0   -0.13    4.04    3.69     3.94872     1.87320    -0.98237
     2  H   1.0    0.04    1.00    1.43     4.60991    -0.07233    -0.93316
     3  H   1.0    0.05    1.00    1.43     4.65855     2.87783     0.66180
     4  H   1.0    0.04    1.00    1.43     1.89401     1.84874    -0.93403
     5  C   4.0   -0.09    4.08    3.77     3.96133     1.88177    -5.78592
     6  H   1.0    0.04    1.01    1.43     1.89682     1.83674    -5.76434
     7  H   1.0    0.04    1.01    1.43     4.61468    -0.07712    -5.76157
     8  C   4.0   -0.13    4.03    3.67     4.91216     3.22848    -8.14412
     9  H   1.0    0.05    1.00    1.43     6.96586     3.25939    -8.16270
    10  H   1.0    0.04    1.00    1.43     4.24463     2.27782    -9.83864
    11  H   1.0    0.05    1.00    1.43     4.24908     5.17240    -8.16570
    12  C   4.0    0.15    3.12    3.03     4.84948     3.14636    -3.37422
    13  O   6.0   -0.16    1.13    1.80     6.15940     5.00496    -3.35559
 
  Z AO/shell   Hii/eV     exponent
  1     Wed Apr 25 08:07:45 CEST 2018   EN: 2.200 GM2: 0.406  GM3: 0.0800  RAES: 1.40
     1s    -10.707211    1.230000
  6     Wed Apr 25 08:07:45 CEST 2018   EN: 2.550 GM2: 0.538  GM3: 0.1500  RAES: 3.00
     2s    -13.970922    2.096432
     2p    -10.063292    1.800000
  8     Wed Apr 25 08:07:45 CEST 2018   EN: 3.440 GM2: 0.452  GM3:-0.0517  RAES: 1.80
     2s    -20.229985    2.439742
     2p    -15.503117    2.137023
 
Refinement of some symmetry elements was terminated before convergence was reached.
Some symmetry elements may remain unidentified.
Molecule has the following symmetry elements: (sigma) 
It seems to be the Cs point group
cs  symmetry found (for desy threshold:  0.10E+00) used in thermo
 no old-style atom pair restraing (fixing) potential
 
             =======================================
             |                                     |
             |        S C C  calculation           |
             |                                     |
             =======================================
 #proc     :            2
 Ncao      :           28
 Nao       :           28
 Nel       :           30
 T(el)     :   300.0
 intcut    :    25.0
 scfconv   :  0.100E-05
   qconv   :  0.100E-03
 intneglect:  0.100E-07
 broydamp  :      0.400
 Nshell    :           18
 iter      E             dE          RMSdq      gap      omega  full diag
   1    -16.8565474 -0.168565E+02  0.419E+00    4.49       0.0  T
   2    -16.9104458 -0.538984E-01  0.182E+00    3.83       1.0  T
   3    -16.9140414 -0.359563E-02  0.110E+00    4.22       1.0  T
   4    -16.9160333 -0.199194E-02  0.286E-01    3.98       1.0  T
   5    -16.9165194 -0.486044E-03  0.910E-02    4.06       1.0  T
   6    -16.9165289 -0.949758E-05  0.273E-02    4.05       1.0  T
   7    -16.9165292 -0.354983E-06  0.106E-02    4.05       2.6  T
   8    -16.9165294 -0.207378E-06  0.288E-03    4.05       9.6  T
   9    -16.9165295 -0.221718E-07  0.104E-03    4.05      26.6  T
  10    -16.9165295 -0.495749E-08  0.214E-04    4.05     129.5  T
  11    -16.9165295 -0.105850E-09  0.577E-05    4.05     480.5  T
speedup  1.00
cpu  time for SCC    0.01 s
wall time for SCC    0.01 s

          eigenvalues
 #    :           3          4          5          6          7          8          9         10
 occ. :        2.000      2.000      2.000      2.000      2.000      2.000      2.000      2.000
 eps  :       -17.044    -15.994    -15.399    -14.901    -14.751    -13.956    -13.594    -13.143
 #    :          11         12         13         14         15         16         17         18
 occ. :        2.000      2.000      2.000      2.000      2.000      0.000      0.000      0.000
 eps  :       -13.048    -12.696    -12.398    -12.115    -10.745     -6.695      1.809      3.402
 #    :          19         20         21         22         23         24         25         26
 occ. :        0.000      0.000      0.000      0.000      0.000      0.000      0.000      0.000
 eps  :         3.905      4.246      4.679      4.826      5.153      5.656      6.183      7.431
 

   #   Z            q   n(s)   n(p)   n(d)      C6AA      α(0)    relVol
   1   6 C     -0.141  1.043  3.098  0.000    23.396     6.914     0.560
   2   1 H      0.062  0.938  0.000  0.000     2.168     2.303     0.456
   3   1 H      0.067  0.933  0.000  0.000     2.110     2.271     0.449
   4   1 H      0.062  0.938  0.000  0.000     2.168     2.302     0.456
   5   6 C     -0.082  1.053  3.029  0.000    22.146     6.709     0.543
   6   1 H      0.055  0.945  0.000  0.000     2.252     2.346     0.464
   7   1 H      0.055  0.945  0.000  0.000     2.251     2.346     0.464
   8   6 C     -0.100  1.031  3.069  0.000    22.611     6.800     0.550
   9   1 H      0.049  0.951  0.000  0.000     2.319     2.381     0.471
  10   1 H      0.036  0.964  0.000  0.000     2.493     2.469     0.489
  11   1 H      0.049  0.951  0.000  0.000     2.319     2.381     0.471
  12   6 C      0.240  1.079  2.681  0.000    22.920     7.836     0.634
  13   8 O     -0.351  1.742  4.609  0.000    20.835     6.126     1.179

 Mol. C6AA /au*bohr^6 :       1266.426871
 Mol. C8AA /au*bohr^6 :      27085.849288
 Mol. a(0) /au        :         53.184111

 
 Wiberg/Mayer (AO) data. WBOs > 0.1 written file <wbo>
 largest (>0.05) Wiberg bond orders for each atom
           total WBO             WBO to atom ...
     1  C   3.995    C   12 0.999    H    3 0.984    H    2 0.965    H    4 0.965    O   13 0.060
     2  H   0.996    C    1 0.965
     3  H   0.995    C    1 0.984
     4  H   0.996    C    1 0.965
     5  C   3.998    C    8 1.020    C   12 0.987    H    6 0.954    H    7 0.954    O   13 0.061
     6  H   0.997    C    5 0.954
     7  H   0.997    C    5 0.954
     8  C   3.994    C    5 1.020    H   10 0.987    H   11 0.987    H    9 0.987
     9  H   0.998    C    8 0.987
    10  H   0.998    C    8 0.987
    11  H   0.998    C    8 0.987
    12  C   3.918    O   13 1.876    C    1 0.999    C    5 0.987
    13  O   2.081    C   12 1.876    C    5 0.061    C    1 0.060
 
molecular dipole:
                 x           y           z       tot (Debye)
 q only:       -0.597      -0.847      -0.066
   full:        1.281      -1.046      -0.038       3.256
molecular quadrupole (traceless):
                xx          xy          yy          xz          yz          zz
 q only:       -4.216      -9.877      -4.167       2.268       3.592       8.384
  q+dip:       -4.322     -12.718      -4.628       3.541       5.242       8.950
   full:       -4.141     -13.170      -4.770       3.386       5.019       8.912
 SCC converged in           11  cycles
 
SCC energy    :     -16.9165295
rep           :       0.2191416
ES            :       0.0269434
AES           :       0.0033601
AXC           :       0.0073440
disp          :      -0.0060865
XB            :       0.0000000
fix           :       0.0000000
total E       :     -16.6973836
atomizationE  :       3.2922160     2065.90
(atE without considerung molecular charge,
 total energy contains solvation terms)
H-L gap (eV)  :          4.0496
 
             =======================================
             |                                     |
             |    Approximate Normal Coordinate    |
             |   Rational Function Optimization    |
             |                                     |
             =======================================
Ref. for RF algo: F.Eckert, P.Pulay, H.-J.Werner
                  J.Comput.Chem. 18 (1997) 1473.
ANC idea implemented by S. Grimme in the 2000ers (unpublished)
restraining potential by S. Ehrlich.
dumping coords to <xtbopt.coord> and <xtbopt.log
 optlevel               1
 Maxcycle             200
 Maxmicro              20
 Econv         1.000000000000000E-006
 Gconv         8.000000000000000E-004
 Maxdispl       1.00000000000000     
 Hlow          1.000000000000000E-002
 S6             20.0000000000000     
 Nvar               33

generating ANC from model Hessian ...
 Shifting diagonal of input Hessian by   5.948132669366230E-003
 Lowest  eigenvalues of input Hessian
   -0.000000   -0.000000   -0.000000   -0.000000    0.000000    0.000000
    0.010000    0.013361    0.015585    0.019691    0.027607    0.049120
    0.055461    0.059857    0.065289    0.068259    0.075776    0.092588
 Highest eigenvalues
    1.135714    1.159045    1.167218    1.233290    1.397539    2.164374
 
cpu  time for ANC gen    0.01 s
wall time for ANC gen    0.01 s
................................................................................
.............................. CYCLE    1 ......................................
................................................................................
  q data taken from xtbrestart
  CAMM data taken from xtbrestart
   1    -16.9165295 -0.169165E+02  0.193E-05    4.05       0.0  T
   2    -16.9165295 -0.189715E-11  0.799E-06    4.05    3471.2  T
   3    -16.9165295 -0.664357E-12  0.393E-06    4.05    7048.3  T
speedup  1.00
cpu  time for SCC    0.00 s
wall time for SCC    0.00 s
speedup  1.00
cpu  time for grad    0.00 s
wall time for grad    0.00 s
 E :    -16.69738357  G :  0.000108    pred/act E change:  0.000D+00 -0.263D-10
Maxdispl :   0.0011   ||displ|| :   0.0011   Lambda : -0.351D-07
Largest |displ|/coords:  0.0011 (   3)  0.0002 (  14)  0.0001 (  11)
ancopt converged in          1 cycles
total energy gain (kcal):      0.0000
================
 final structure:
================
    13
        -16.69738357
C           2.08957489200496    0.99125590535965   -0.51984755949860
H           2.43945704880473   -0.03827326086144   -0.49380946069996
H           2.46520088465925    1.52288476287749    0.35020821353921
H           1.00226691678026    0.97831312621258   -0.49426813415224
C           2.09624380138349    0.99578888494702   -3.06177557097498
H           1.00375360915383    0.97196085350349   -3.05035839086428
H           2.44198218528431   -0.04080873288386   -3.04889372345985
C           2.59940441173229    1.70843596823722   -4.30968203249271
H           3.68617684224280    1.72479521697248   -4.31951768227883
H           2.24616274057790    1.20537294559956   -5.20638701672738
H           2.24851414075284    2.73711660640022   -4.32110270552415
C           2.56623649584789    1.66497977900100   -1.78556030850036
O           3.25941656077544    2.64851069463458   -1.77570409836587
 
 Bond Distances (Angstroems)
 ---------------------------
C1-H2=1.0877         C1-H3=1.0866         C1-H4=1.0877         C1-C12=1.5110        H2-C1=1.0877         H3-C1=1.0866         
H4-C1=1.0877         C5-H6=1.0928         C5-H7=1.0928         C5-C8=1.5226         C5-C12=1.5157        H6-C5=1.0928         
H7-C5=1.0928         C8-C5=1.5226         C8-H9=1.0869         C8-H10=1.0872        C8-H11=1.0869        H9-C8=1.0869         
H10-C8=1.0872        H11-C8=1.0869        C12-C1=1.5110        C12-C5=1.5157        C12-O13=1.2033       O13-C12=1.2033       
 C  H  Rav=1.0886 sigma=0.0025  Rmin=1.0866  Rmax=1.0928     8
 C  C  Rav=1.5164 sigma=0.0048  Rmin=1.5110  Rmax=1.5226     3
 O  C  Rav=1.2033 sigma=0.0000  Rmin=1.2033  Rmax=1.2033     1
 
 selected bond angles (degree)
 --------------------
H3-C1-H2=109.43                H4-C1-H2=108.04                H4-C1-H3=109.42                C12-C1-H2=109.91               
C12-C1-H3=110.09               C12-C1-H4=109.90               H7-C5-H6=107.19                C8-C5-H6=110.43                
C8-C5-H7=110.43                C12-C5-H6=108.11               C12-C5-H7=108.11               C12-C5-C8=112.39               
H9-C8-C5=110.17                H10-C8-C5=110.61               H10-C8-H9=108.93               H11-C8-C5=110.18               
H11-C8-H9=107.96               H11-C8-H10=108.93              
 
 selected dihedral angles (degree)
 ---------------------------------
H9-C8-C5-H6=180.32            H9-C8-C5-H7=298.69            H9-C8-C5-C12= 59.50           H10-C8-C5-H6=300.81           
H10-C8-C5-H7= 59.19           H10-C8-C5-C12=179.99          H11-C8-C5-H6= 61.30           H11-C8-C5-H7=179.68           
H11-C8-C5-C12=300.49          
 
             =======================================
             |                                     |
             |        S C C  calculation           |
             |                                     |
             =======================================
 #proc     :            2
 Ncao      :           28
 Nao       :           28
 Nel       :           30
 T(el)     :   300.0
 intcut    :    25.0
 scfconv   :  0.100E-05
   qconv   :  0.100E-03
 intneglect:  0.100E-07
 broydamp  :      0.400
 Nshell    :           18
 iter      E             dE          RMSdq      gap      omega  full diag
   1    -16.9165295 -0.169165E+02  0.710E-07    4.05       0.0  T
   2    -16.9165295 -0.355271E-14  0.365E-07    4.05   75883.4  T
   3    -16.9165295  0.355271E-14  0.199E-07    4.05  100000.0  T
speedup  1.00
cpu  time for SCC    0.00 s
wall time for SCC    0.00 s

          eigenvalues
 #    :           3          4          5          6          7          8          9         10
 occ. :        2.000      2.000      2.000      2.000      2.000      2.000      2.000      2.000
 eps  :       -17.044    -15.994    -15.399    -14.901    -14.751    -13.956    -13.594    -13.143
 #    :          11         12         13         14         15         16         17         18
 occ. :        2.000      2.000      2.000      2.000      2.000      0.000      0.000      0.000
 eps  :       -13.048    -12.696    -12.398    -12.115    -10.745     -6.695      1.809      3.402
 #    :          19         20         21         22         23         24         25         26
 occ. :        0.000      0.000      0.000      0.000      0.000      0.000      0.000      0.000
 eps  :         3.905      4.246      4.679      4.826      5.153      5.656      6.183      7.431
 

   #   Z            q   n(s)   n(p)   n(d)      C6AA      α(0)    relVol
   1   6 C     -0.141  1.043  3.098  0.000    23.396     6.914     0.560
   2   1 H      0.062  0.938  0.000  0.000     2.168     2.303     0.456
   3   1 H      0.067  0.933  0.000  0.000     2.110     2.271     0.449
   4   1 H      0.062  0.938  0.000  0.000     2.168     2.302     0.456
   5   6 C     -0.082  1.053  3.029  0.000    22.146     6.709     0.543
   6   1 H      0.055  0.945  0.000  0.000     2.252     2.346     0.464
   7   1 H      0.055  0.945  0.000  0.000     2.251     2.346     0.464
   8   6 C     -0.100  1.031  3.069  0.000    22.611     6.800     0.550
   9   1 H      0.049  0.951  0.000  0.000     2.319     2.381     0.471
  10   1 H      0.036  0.964  0.000  0.000     2.493     2.469     0.489
  11   1 H      0.049  0.951  0.000  0.000     2.319     2.381     0.471
  12   6 C      0.240  1.079  2.681  0.000    22.920     7.836     0.634
  13   8 O     -0.351  1.742  4.609  0.000    20.835     6.126     1.179

 Mol. C6AA /au*bohr^6 :       1266.426975
 Mol. C8AA /au*bohr^6 :      27085.845590
 Mol. a(0) /au        :         53.184107

 
 Wiberg/Mayer (AO) data. WBOs > 0.1 written file <wbo>
 largest (>0.05) Wiberg bond orders for each atom
           total WBO             WBO to atom ...
     1  C   3.995    C   12 0.999    H    3 0.984    H    2 0.965    H    4 0.965    O   13 0.060
     2  H   0.996    C    1 0.965
     3  H   0.995    C    1 0.984
     4  H   0.996    C    1 0.965
     5  C   3.998    C    8 1.020    C   12 0.987    H    6 0.954    H    7 0.954    O   13 0.061
     6  H   0.997    C    5 0.954
     7  H   0.997    C    5 0.954
     8  C   3.994    C    5 1.020    H   10 0.987    H   11 0.987    H    9 0.987
     9  H   0.998    C    8 0.987
    10  H   0.998    C    8 0.987
    11  H   0.998    C    8 0.987
    12  C   3.918    O   13 1.876    C    1 0.999    C    5 0.987
    13  O   2.081    C   12 1.876    C    5 0.061    C    1 0.060
 
molecular dipole:
                 x           y           z       tot (Debye)
 q only:       -0.597      -0.847      -0.066
   full:       -0.738      -1.046      -0.038       3.256
molecular quadrupole (traceless):
                xx          xy          yy          xz          yz          zz
 q only:       -4.216      -9.877      -4.167       2.268       3.592       8.384
  q+dip:       -4.322     -12.718      -4.628       3.542       5.242       8.950
   full:       -4.142     -13.170      -4.770       3.386       5.020       8.912
 SCC converged in            3  cycles
 
SCC energy    :     -16.9165295
rep           :       0.2191416
ES            :       0.0269448
AES           :       0.0033601
AXC           :       0.0073441
disp          :      -0.0060865
XB            :       0.0000000
fix           :       0.0000000
total E       :     -16.6973836
atomizationE  :       3.2922160     2065.90
(atE without considerung molecular charge,
 total energy contains solvation terms)
H-L gap (eV)  :          4.0496
 !!!!!!!!!!!!!!!!!!!!!!!!!!!!!!!!!!!
 ! Note: the input coordinates are !
 ! NOT overwritten. The optimized  !
 ! ones are on file <xtbopt.coord> !
 ! (or on <xtbopt.xyz> if it was a !
 ! xyz file)                       !
 !!!!!!!!!!!!!!!!!!!!!!!!!!!!!!!!!!!
 
Refinement of some symmetry elements was terminated before convergence was reached.
Some symmetry elements may remain unidentified.
Molecule has the following symmetry elements: (sigma) 
It seems to be the Cs point group
cs  symmetry found (for desy threshold:  0.10E+00) used in thermo
  q data taken from xtbrestart
  CAMM data taken from xtbrestart
 
             =======================================
             |                                     |
             |         Numerical Hessian           |
             |                                     |
             =======================================
step length          :   0.00500
SCC accuracy         :   0.30000
Hessian scale factor :   1.00000
frozen atoms in %    :   0.00000    0
RMS gradient         :   0.00011
estimated CPU  time      0.01 min
estimated wall time      0.01 min
 
 writing file <hessian>.
 
 projected vibrational frequencies (cm-1)
eig.   :       -0.00    -0.00    -0.00    -0.00     0.00     0.00
eig.   :      -51.04    80.75   177.75   233.27   395.93   476.86
eig.   :      580.49   772.40   811.93   936.74   968.66  1039.90
eig.   :     1084.56  1111.14  1155.99  1230.01  1318.84  1370.07
eig.   :     1411.02  1440.65  1455.53  1464.09  1488.96  1499.47
eig.   :     1781.37  2959.33  2974.80  3029.07  3034.95  3040.16
eig.   :     3048.06  3053.94  3057.87
 reduced masses (amu)
   1: 12.22   2: 12.61   3:  9.73   4: 10.79   5:  9.61   6: 10.70   7:  3.88   8:  4.87
   9:  2.25  10: 10.36  11:  9.53  12:  7.49  13: 11.06  14:  3.47  15:  9.14  16:  3.08
  17:  6.12  18:  6.01  19:  5.88  20:  8.41  21:  8.26  22:  3.13  23:  5.98  24:  3.22
  25:  2.97  26:  2.06  27:  1.72  28:  1.60  29:  1.50  30:  1.57  31: 13.33  32:  1.97
  33:  1.49  34:  1.95  35:  1.43  36:  1.76  37:  1.95  38:  1.45  39:  1.79
 IR intensities (amu)
   1:  0.10   2:  0.16   3:  0.15   4:  0.19   5:  0.20   6:  0.10   7:  0.01   8:  0.08
   9:  0.06  10:  0.26  11:  0.25  12:  0.25  13:  0.41  14:  0.14  15:  0.26  16:  0.22
  17:  0.50  18:  0.29  19:  0.23  20:  0.16  21:  1.16  22:  0.05  23:  0.63  24:  0.40
  25:  0.14  26:  0.08  27:  0.22  28:  0.10  29:  0.04  30:  0.07  31:  2.08  32:  0.16
  33:  0.15  34:  0.11  35:  0.07  36:  0.21  37:  0.19  38:  0.15  39:  0.13
 output can be read by thermo (or use thermo option).
 writing <g98.out> molden fake output.
 recommended (thermochemical) frequency scaling factor: 1.0
                    ==================
                    thermo calculation
                    ==================
Nvib :   32 Nimag : 1  symmetry :   cs  rot number :  1  scale factor : 1.00 sthr :  50.
omega= 80.75     Gvib=    -1.155     Grot=    -0.914     Gused=    -1.124
omega=177.75     Gvib=    -0.701     Grot=    -0.681     Gused=    -0.701
omega=233.27     Gvib=    -0.553     Grot=    -0.600     Gused=    -0.553
 
   temp. (K)  partition function   enthalpy   heat capacity  entropy
                                   cal/mol     cal/K/mol   cal/K/mol   J/K/mol
 298.15  VIB   12.2                 1899.950     13.795     11.237
         ROT  0.882E+05              888.752      2.981     25.611
         INT  0.107E+07             2788.702     16.776     36.848
         TR   0.592E+27             1481.254      4.968     38.726
         TOT                        4269.9562    21.7438    75.5732   316.1971
                     Eh         kcal/mol          kJ/mol 
ZPVE            0.110456         69.3121         290.001    
H(0)-H(T)+PV    0.680461E-02     4.26996         17.8654    
H(T)            0.117261         73.5821         307.866    
T*S             0.359073E-01     22.5322         94.2742    
G(T)            0.813532E-01     51.0499         213.592    
    -16.61603033  <=== TOTAL FREE ENERGY in Eh incl. el.,ZPVE,RRHO,solv. parts
 
Eat (element increment corrected) /kcal :  1504.362
        -270.845  <=== HOF(298)/kcal, to be compared to exptl. data
imag cut-off (cm-1) :    5.00
 found            1  significant imaginary frequency
 writing imag mode distorted coords to <xtbhess.coord>
 for further optimization.
 
 normal mode %tage of torsion character
   1:  0.00   2:  0.00   3:  0.00   4:  0.00   5:  0.00   6:  0.00   7:  0.83   8:  0.78
   9:  0.94  10:  0.14  11:  0.07  12:  0.87  13:  0.19  14:  0.84  15:  0.13  16:  0.30
  17:  0.47  18:  0.06  19:  0.46  20:  0.08  21:  0.09  22:  0.47  23:  0.01  24:  0.50
  25:  0.00  26:  0.49  27:  0.27  28:  0.29  29:  0.93  30:  0.89  31:  0.06  32:  0.44
  33:  0.01  34:  0.12  35:  0.11  36:  0.03  37:  0.17  38:  0.01  39:  0.06
 recommended # of modes for mode following           4
 
speedup  0.98
cpu  time for all    0.68 s
wall time for all    0.69 s
