 
        ______________________________________
       |                                      |
       |           ==================         |
       |                 x T B                |
       |           ==================         |
       |               S. Grimme              |
       |        Universitaet Bonn, MCTC       |
       |         2015-18, Version 5.8.1       |
       |      Sun May  6 11:39:08 CEST 2018   |
       |______________________________________|
 
        This code comes without any warranty
        for non-commercial, academia use only.
        Preliminary GFN2 test version.
        Test license to: Dow Chemical Company
        Cite GFN-xTB work as:
        S. Grimme, C. Bannwarth, P. Shushkov
        JCTC, 13 (2017) 1989-2009
        for GFN2:
        C. Bannwarth, S. Ehlert, S. Grimme
        to be published.
        sTDA-xTB:
        S. Grimme  &  C. Bannwarth, JCP 145 (2016) 054103
        in the mass-spec context additionally:
        V. Asgeirsson, C.Bauer, S. Grimme, Chem. Sci. 8 (2017) 4879
 
        with help from
        P. Shushkov, G. Brandenburg, S. Dohm, J. Pisarek,
        F. März, M. Checinski, S. Ehrlich, S. Spicher, 
        P. Pracht, E. Caldeweyher, S. Ehlert, and C. Bannwarth.
 
        usage        :
        xtb <coord_file> [options]
        where <coord_file> is a valid file of TM)
        (*coord, Bohr) or xmol (*xyz, Angstroem)
        format.

        options:
        -chrg <int>   : molecular charge
        -uhf  <int>   : # of unpaired electrons(=2*S)
        -nox          : skip second, extended part in sTDA-xTB
        -pop          : do population analysis
                      : (default for -nox)
        -mowr <real>  : cut MO write above (def.3 Eh)
        -molden       : write formatted molden file
        -parx <file>  : read parameters for sTDA-xTB
                        calc (def:~/.param_stda2.xtb)
        -parv <file>  : read parameters for vTB part in
                        sTDA-xTB (def: ~/.param_stda1.xtb)
        -xtemp <real> : el. temp for xTB (def. 0 K)
        -etemp <real> : el. temp for GFN (def. 300 K)
        -fod          : calculate the FOD and write
                        molden.input file with
                        appropriate occupations
                        for plotting. Def. T=12500 K
 
        -gfn1         : use GFN-xTB
        -gfn2         : use GFN2-xTB
        -gfn2d3       : GFN2-xTB with D3 instead of D4
        -grad         : GFNn-xTB gradient
        -acc <real>   : GFNn-xTB accuracy (def. 1.0)
        -opt [level]  : optimize at GFNn-xTB
                      : level=crude,vloose,loose,
                      :       tight,vtight
        -hess         : compute Hessian at GFNn-xTB
        -ohess        : optimize and compute Hessian
        -omd          : optimize and do MD
        -siman        : conformational search
        -screen       : opt. loop over ensemble
        -gmd          : annealed MD for GMD procedure
        -modef        : vib mode following
        -gbsa [string1] [string2]
                        use GBSA implicit solvent
                        for solvent [string1] and
                        solvation state [string2]=
                        reference, bar1M (default=1M)
        additional GFN/opt/MD/siman options read from
        $XTBHOME/.xtbrc or $set in coordinate file
 
       spin and charge state information can be on:
       <.CHRG> (charge) and <.UHF> (=nalpha-nbeta)
       -uhf and -chrg override the file info.
       useful machine settings:
       setenv MKL_NUM_THREADS <NCORE_ON_YOUR_MACHINE>
       setenv OMP_STACKSIZE 500m
       limit stacksize unlimited
 
       total energies in Eh, gaps/HL energies in eV
       please read REVISION and HOWTO files carefully
          72  days left until this code expires
 =============================
  # OMP threads =           2
 =============================
 
 xtbhome directory:/home/ua25450/dftb/
 
 argument            1 :-ohess
 
 name of molecule           :
 comment line               :
 number of atoms            :    15
 number of electrons        :    32
 charge                     :  0
 spin                       : 0.0
 first test random number   :  0.2912
 
 
 -----------------------------------------
  G F N (Geometry, Frequency, Non-covalent)
        parametrization, gfnver=           3
     D4 dispersion model
 /home/ua25450/dftb/.param_gfn2.xtb
 -----------------------------------------
      method parameters     
 k(s)        :  1.8500
 k(p)        :  2.2300
 k(d)        :  2.2300
 k(f)        :  2.0000
 kEN (H0ij)  : -2.0000
 D3 a1       :  0.5200
 D3 a2       :  5.0000
 D3 s8       :  2.7000
 D3atm       :  5.0000
 alphaj      :  2.0000
 
     -------------------------
     ! NO SOLVENT MODEL USED !
     -------------------------
 
 doing EN charges ...
 sum q : -0.5551115D-15
 point charge moment (au)
     X       Y       Z   
  -0.1531   0.1099  -0.1902  total (Debye):    0.681
 
            Z     q(EN)     CN     RAES       Cart. coordinates
     1  C   4.0   -0.02    4.09    3.78    -0.36534    -2.24822     1.79611
     2  H   1.0    0.04    1.00    1.43     0.30835    -1.29516     0.06944
     3  H   1.0    0.04    1.00    1.43    -2.44838    -2.26601     1.73541
     4  O   6.0   -0.13    2.11    1.84     0.46736    -0.92083     3.94571
     5  C   4.0   -0.02    4.09    3.78    -0.36949     1.60281     4.02459
     6  H   1.0    0.04    1.00    1.43    -2.45282     1.66019     4.02104
     7  H   1.0    0.04    1.00    1.43     0.29296     2.62298     2.33225
     8  C   4.0   -0.13    4.00    3.62     0.65288    -4.93146     1.91784
     9  H   1.0    0.05    1.00    1.43    -0.02079    -5.85399     3.62349
    10  H   1.0    0.04    1.00    1.43     0.02818    -5.99600     0.27737
    11  H   1.0    0.05    1.00    1.43     2.70489    -4.89553     1.96356
    12  C   4.0   -0.13    4.00    3.62     0.65958     2.84143     6.40332
    13  H   1.0    0.05    1.00    1.43     2.71152     2.78369     6.38544
    14  H   1.0    0.04    1.00    1.43     0.03558     4.79463     6.50577
    15  H   1.0    0.05    1.00    1.43    -0.00638     1.82744     8.05936
 
  Z AO/shell   Hii/eV     exponent
  1     Wed Apr 25 08:07:45 CEST 2018   EN: 2.200 GM2: 0.406  GM3: 0.0800  RAES: 1.40
     1s    -10.707211    1.230000
  6     Wed Apr 25 08:07:45 CEST 2018   EN: 2.550 GM2: 0.538  GM3: 0.1500  RAES: 3.00
     2s    -13.970922    2.096432
     2p    -10.063292    1.800000
  8     Wed Apr 25 08:07:45 CEST 2018   EN: 3.440 GM2: 0.452  GM3:-0.0517  RAES: 1.80
     2s    -20.229985    2.439742
     2p    -15.503117    2.137023
 
Refinement of some symmetry elements was terminated before convergence was reached.
Some symmetry elements may remain unidentified.
Molecule has the following symmetry elements: (C2) 2*(sigma) 
It seems to be the C2v point group
c2v symmetry found (for desy threshold:  0.10E+00) used in thermo
 no old-style atom pair restraing (fixing) potential
 
             =======================================
             |                                     |
             |        S C C  calculation           |
             |                                     |
             =======================================
 #proc     :            2
 Ncao      :           30
 Nao       :           30
 Nel       :           32
 T(el)     :   300.0
 intcut    :    25.0
 scfconv   :  0.100E-05
   qconv   :  0.100E-03
 intneglect:  0.100E-07
 broydamp  :      0.400
 Nshell    :           20
 iter      E             dE          RMSdq      gap      omega  full diag
   1    -17.8885386 -0.178885E+02  0.394E+00   11.86       0.0  T
   2    -17.9272102 -0.386716E-01  0.190E+00   11.45       1.0  T
   3    -17.9289492 -0.173892E-02  0.642E-01   11.43       1.0  T
   4    -17.9291880 -0.238823E-03  0.188E-01   11.47       1.0  T
   5    -17.9292487 -0.607593E-04  0.667E-02   11.51       1.0  T
   6    -17.9292520 -0.326241E-05  0.224E-02   11.52       1.2  T
   7    -17.9292523 -0.322035E-06  0.241E-03   11.52      10.7  T
   8    -17.9292523 -0.528698E-08  0.132E-03   11.52      19.5  T
   9    -17.9292523 -0.113240E-07  0.200E-04   11.52     128.9  T
  10    -17.9292523 -0.130335E-09  0.624E-05   11.52     413.9  T
speedup  1.00
cpu  time for SCC    0.01 s
wall time for SCC    0.01 s

          eigenvalues
 #    :           4          5          6          7          8          9         10         11
 occ. :        2.000      2.000      2.000      2.000      2.000      2.000      2.000      2.000
 eps  :       -16.031    -15.733    -14.928    -14.832    -13.942    -13.740    -12.997    -12.592
 #    :          12         13         14         15         16         17         18         19
 occ. :        2.000      2.000      2.000      2.000      2.000      0.000      0.000      0.000
 eps  :       -12.570    -12.364    -12.095    -11.991    -10.676      0.846      2.853      3.130
 #    :          20         21         22         23         24         25         26         27
 occ. :        0.000      0.000      0.000      0.000      0.000      0.000      0.000      0.000
 eps  :         3.989      4.066      4.227      4.566      4.791      4.900      5.299      6.775
 

   #   Z            q   n(s)   n(p)   n(d)      C6AA      α(0)    relVol
   1   6 C      0.093  1.033  2.874  0.000    19.254     6.288     0.509
   2   1 H      0.013  0.987  0.000  0.000     2.836     2.633     0.521
   3   1 H      0.013  0.987  0.000  0.000     2.836     2.633     0.521
   4   8 O     -0.320  1.674  4.646  0.000    19.791     6.020     1.159
   5   6 C      0.093  1.033  2.874  0.000    19.254     6.288     0.509
   6   1 H      0.013  0.987  0.000  0.000     2.836     2.633     0.521
   7   1 H      0.013  0.987  0.000  0.000     2.837     2.634     0.521
   8   6 C     -0.111  1.037  3.074  0.000    22.855     6.843     0.554
   9   1 H      0.055  0.945  0.000  0.000     2.255     2.348     0.465
  10   1 H      0.042  0.958  0.000  0.000     2.410     2.427     0.480
  11   1 H      0.054  0.946  0.000  0.000     2.256     2.349     0.465
  12   6 C     -0.111  1.037  3.074  0.000    22.855     6.843     0.554
  13   1 H      0.054  0.946  0.000  0.000     2.256     2.349     0.465
  14   1 H      0.042  0.958  0.000  0.000     2.410     2.427     0.480
  15   1 H      0.055  0.945  0.000  0.000     2.255     2.348     0.465

 Mol. C6AA /au*bohr^6 :       1486.177661
 Mol. C8AA /au*bohr^6 :      30057.084209
 Mol. a(0) /au        :         57.064713

 
 Wiberg/Mayer (AO) data. WBOs > 0.1 written file <wbo>
 largest (>0.05) Wiberg bond orders for each atom
           total WBO             WBO to atom ...
     1  C   3.957    C    8 1.015    O    4 0.984    H    3 0.968    H    2 0.968
     2  H   1.000    C    1 0.968
     3  H   1.000    C    1 0.968
     4  O   2.068    C    5 0.984    C    1 0.984
     5  C   3.957    C   12 1.015    O    4 0.984    H    6 0.968    H    7 0.968
     6  H   1.000    C    5 0.968
     7  H   1.000    C    5 0.968
     8  C   3.994    C    1 1.015    H   11 0.986    H    9 0.986    H   10 0.986
     9  H   0.997    C    8 0.986
    10  H   0.998    C    8 0.986
    11  H   0.997    C    8 0.986
    12  C   3.994    C    5 1.015    H   13 0.986    H   15 0.986    H   14 0.986
    13  H   0.997    C   12 0.986
    14  H   0.998    C   12 0.986
    15  H   0.997    C   12 0.986
 
molecular dipole:
                 x           y           z       tot (Debye)
 q only:       -0.125       0.091      -0.157
   full:        0.460       0.189      -0.327       1.170
molecular quadrupole (traceless):
                xx          xy          yy          xz          yz          zz
 q only:       -1.190       0.044       2.593      -0.512       2.819      -1.403
  q+dip:        0.929       0.694       1.571      -2.128       2.194      -2.499
   full:        0.250       0.455       2.246      -1.713       2.776      -2.496
 SCC converged in           10  cycles
 
SCC energy    :     -17.9292523
rep           :       0.2087618
ES            :       0.0202132
AES           :       0.0038706
AXC           :       0.0053505
disp          :      -0.0066723
XB            :       0.0000000
fix           :       0.0000000
total E       :     -17.7204849
atomizationE  :       3.5283522     2214.07
(atE without considerung molecular charge,
 total energy contains solvation terms)
H-L gap (eV)  :         11.5223
 
             =======================================
             |                                     |
             |    Approximate Normal Coordinate    |
             |   Rational Function Optimization    |
             |                                     |
             =======================================
Ref. for RF algo: F.Eckert, P.Pulay, H.-J.Werner
                  J.Comput.Chem. 18 (1997) 1473.
ANC idea implemented by S. Grimme in the 2000ers (unpublished)
restraining potential by S. Ehrlich.
dumping coords to <xtbopt.coord> and <xtbopt.log
 optlevel               1
 Maxcycle             200
 Maxmicro              20
 Econv         1.000000000000000E-006
 Gconv         8.000000000000000E-004
 Maxdispl       1.00000000000000     
 Hlow          1.000000000000000E-002
 S6             20.0000000000000     
 Nvar               39

generating ANC from model Hessian ...
 Shifting diagonal of input Hessian by   7.028976921656842E-003
 Lowest  eigenvalues of input Hessian
   -0.000000   -0.000000   -0.000000   -0.000000   -0.000000    0.000000
    0.010000    0.012134    0.013247    0.019445    0.027623    0.032061
    0.033351    0.048405    0.053694    0.061753    0.062627    0.076714
 Highest eigenvalues
    1.170055    1.172305    1.225789    1.263830    1.308916    1.576485
 
cpu  time for ANC gen    0.01 s
wall time for ANC gen    0.01 s
................................................................................
.............................. CYCLE    1 ......................................
................................................................................
  q data taken from xtbrestart
  CAMM data taken from xtbrestart
   1    -17.9292523 -0.179293E+02  0.672E-06   11.52       0.0  T
   2    -17.9292523 -0.852651E-13  0.327E-06   11.52    7902.9  T
   3    -17.9292523 -0.177636E-13  0.145E-06   11.52   17839.7  T
speedup  1.00
cpu  time for SCC    0.00 s
wall time for SCC    0.00 s
speedup  1.00
cpu  time for grad    0.00 s
wall time for grad    0.00 s
 E :    -17.72048494  G :  0.000189    pred/act E change:  0.000D+00  0.102D-10
Maxdispl :   0.0016   ||displ|| :   0.0031   Lambda : -0.201D-06
Largest |displ|/coords:  0.0016 (   2)  0.0015 (   5)  0.0014 (   1)
................................................................................
.............................. CYCLE    2 ......................................
................................................................................
   1    -17.9292470 -0.179292E+02  0.256E-03   11.52       0.0  T
   2    -17.9292470 -0.603571E-09  0.158E-03   11.52      16.3  T
   3    -17.9292470 -0.303800E-09  0.969E-05   11.52     266.4  T
   4    -17.9292470 -0.511235E-11  0.488E-05   11.52     528.8  T
speedup  1.00
cpu  time for SCC    0.00 s
wall time for SCC    0.00 s
speedup  1.00
cpu  time for grad    0.00 s
wall time for grad    0.00 s
 E :    -17.72048511  G :  0.000101    pred/act E change:  0.000D+00 -0.177D-06
Maxdispl :   0.0071   ||displ|| :   0.0133   Lambda : -0.636D-06
Largest |displ|/coords:  0.0071 (   2)  0.0066 (   1)  0.0062 (   5)
ancopt converged in          2 cycles
total energy gain (kcal):     -0.0001
================
 final structure:
================
    15
        -17.72048511
C          -0.19327775535411   -1.18972978907125    0.95055217545174
H           0.16269043854017   -0.68554258909841    0.03654386058517
H          -1.29563293001218   -1.19896140371518    0.91913310463771
O           0.24798161311735   -0.48715981131957    2.08776316869586
C          -0.19520403652502    0.84822765019704    2.12961505221734
H          -1.29767313690671    0.87823071630268    2.12744517727096
H           0.15533190445881    1.38822748690462    1.23416293203254
C           0.34542188217151   -2.60964596584807    1.01481111589327
H          -0.01102405330618   -3.09794475135945    1.91735010626656
H           0.01476052871027   -3.17294251031374    0.14666595560482
H           1.43130007944574   -2.59082940488480    1.03893577446156
C           0.34889566937688    1.50366526388265    3.38853317452202
H           1.43474873226105    1.47336128846355    3.37945404953373
H           0.01848656168350    2.53721107880901    3.44276326999778
H          -0.00362287766112    0.96705005105091    4.26479326282893
 
 Bond Distances (Angstroems)
 ---------------------------
C1-H2=1.1029         C1-H3=1.1028         C1-O4=1.4077         C1-C8=1.5200         H2-C1=1.1029         H3-C1=1.1028         
O4-C1=1.4077         O4-C5=1.4076         C5-O4=1.4076         C5-H6=1.1029         C5-H7=1.1029         C5-C12=1.5200        
H6-C5=1.1029         H7-C5=1.1029         C8-C1=1.5200         C8-H9=1.0863         C8-H10=1.0864        C8-H11=1.0863        
H9-C8=1.0863         H10-C8=1.0864        H11-C8=1.0863        C12-C5=1.5200        C12-H13=1.0863       C12-H14=1.0864       
C12-H15=1.0863       H13-C12=1.0863       H14-C12=1.0864       H15-C12=1.0863       
 C  H  Rav=1.0930 sigma=0.0081  Rmin=1.0863  Rmax=1.1029    10
 C  C  Rav=1.5200 sigma=0.0000  Rmin=1.5200  Rmax=1.5200     2
 O  C  Rav=1.4077 sigma=0.0000  Rmin=1.4076  Rmax=1.4077     2
 
 selected bond angles (degree)
 --------------------
H3-C1-H2=107.63                O4-C1-H2=109.89                O4-C1-H3=109.91                C8-C1-H2=110.35                
C8-C1-H3=110.34                C8-C1-O4=108.72                C5-O4-C1=113.50                H6-C5-O4=109.91                
H7-C5-O4=109.89                H7-C5-H6=107.63                C12-C5-O4=108.72               C12-C5-H6=110.35               
C12-C5-H7=110.34               H9-C8-C1=109.80                H10-C8-C1=110.04               H10-C8-H9=109.33               
H11-C8-C1=109.82               H11-C8-H9=108.50               H11-C8-H10=109.33              
 
 selected dihedral angles (degree)
 ---------------------------------
C5-O4-C1-H2= 59.08            C5-O4-C1-H3=300.82            C5-O4-C1-C8=179.94            H6-C5-O4-C1= 59.54            
H7-C5-O4-C1=301.27            C12-C5-O4-C1=180.41           H9-C8-C1-H2=180.05            H9-C8-C1-H3=298.86            
H9-C8-C1-O4= 59.47            H10-C8-C1-H2=300.43           H10-C8-C1-H3= 59.24           H10-C8-C1-O4=179.85           
H11-C8-C1-H2= 60.82           H11-C8-C1-H3=179.64           H11-C8-C1-O4=300.24           
 
             =======================================
             |                                     |
             |        S C C  calculation           |
             |                                     |
             =======================================
 #proc     :            2
 Ncao      :           30
 Nao       :           30
 Nel       :           32
 T(el)     :   300.0
 intcut    :    25.0
 scfconv   :  0.100E-05
   qconv   :  0.100E-03
 intneglect:  0.100E-07
 broydamp  :      0.400
 Nshell    :           20
 iter      E             dE          RMSdq      gap      omega  full diag
   1    -17.9292470 -0.179292E+02  0.637E-06   11.52       0.0  T
   2    -17.9292470 -0.149214E-12  0.273E-06   11.52    9457.0  T
   3    -17.9292470 -0.106581E-13  0.132E-06   11.52   19499.9  T
speedup  1.00
cpu  time for SCC    0.00 s
wall time for SCC    0.00 s

          eigenvalues
 #    :           4          5          6          7          8          9         10         11
 occ. :        2.000      2.000      2.000      2.000      2.000      2.000      2.000      2.000
 eps  :       -16.031    -15.733    -14.928    -14.832    -13.942    -13.740    -12.997    -12.592
 #    :          12         13         14         15         16         17         18         19
 occ. :        2.000      2.000      2.000      2.000      2.000      0.000      0.000      0.000
 eps  :       -12.570    -12.364    -12.096    -11.991    -10.677      0.845      2.853      3.130
 #    :          20         21         22         23         24         25         26         27
 occ. :        0.000      0.000      0.000      0.000      0.000      0.000      0.000      0.000
 eps  :         3.988      4.066      4.227      4.567      4.790      4.901      5.300      6.774
 

   #   Z            q   n(s)   n(p)   n(d)      C6AA      α(0)    relVol
   1   6 C      0.093  1.033  2.874  0.000    19.254     6.288     0.509
   2   1 H      0.013  0.987  0.000  0.000     2.836     2.633     0.521
   3   1 H      0.013  0.987  0.000  0.000     2.836     2.633     0.521
   4   8 O     -0.320  1.674  4.646  0.000    19.792     6.020     1.159
   5   6 C      0.093  1.033  2.874  0.000    19.253     6.288     0.509
   6   1 H      0.013  0.987  0.000  0.000     2.836     2.633     0.521
   7   1 H      0.013  0.987  0.000  0.000     2.837     2.634     0.521
   8   6 C     -0.111  1.037  3.074  0.000    22.855     6.843     0.554
   9   1 H      0.055  0.945  0.000  0.000     2.255     2.348     0.465
  10   1 H      0.042  0.958  0.000  0.000     2.410     2.427     0.480
  11   1 H      0.054  0.946  0.000  0.000     2.256     2.349     0.465
  12   6 C     -0.111  1.037  3.074  0.000    22.855     6.843     0.554
  13   1 H      0.054  0.946  0.000  0.000     2.256     2.349     0.465
  14   1 H      0.042  0.958  0.000  0.000     2.410     2.427     0.480
  15   1 H      0.055  0.945  0.000  0.000     2.255     2.348     0.465

 Mol. C6AA /au*bohr^6 :       1486.179514
 Mol. C8AA /au*bohr^6 :      30057.079518
 Mol. a(0) /au        :         57.064744

 
 Wiberg/Mayer (AO) data. WBOs > 0.1 written file <wbo>
 largest (>0.05) Wiberg bond orders for each atom
           total WBO             WBO to atom ...
     1  C   3.957    C    8 1.015    O    4 0.984    H    3 0.968    H    2 0.968
     2  H   1.000    C    1 0.968
     3  H   1.000    C    1 0.968
     4  O   2.068    C    5 0.984    C    1 0.984
     5  C   3.957    C   12 1.015    O    4 0.984    H    6 0.968    H    7 0.968
     6  H   1.000    C    5 0.968
     7  H   1.000    C    5 0.968
     8  C   3.994    C    1 1.015    H   11 0.986    H    9 0.986    H   10 0.986
     9  H   0.997    C    8 0.986
    10  H   0.998    C    8 0.986
    11  H   0.997    C    8 0.986
    12  C   3.994    C    5 1.015    H   13 0.986    H   15 0.986    H   14 0.986
    13  H   0.997    C   12 0.986
    14  H   0.998    C   12 0.986
    15  H   0.997    C   12 0.986
 
molecular dipole:
                 x           y           z       tot (Debye)
 q only:       -0.125       0.091      -0.157
   full:       -0.263       0.189      -0.327       1.170
molecular quadrupole (traceless):
                xx          xy          yy          xz          yz          zz
 q only:       -1.191       0.044       2.593      -0.514       2.820      -1.402
  q+dip:        0.926       0.695       1.571      -2.130       2.193      -2.497
   full:        0.248       0.456       2.246      -1.715       2.776      -2.494
 SCC converged in            3  cycles
 
SCC energy    :     -17.9292470
rep           :       0.2087563
ES            :       0.0202157
AES           :       0.0038712
AXC           :       0.0053503
disp          :      -0.0066723
XB            :       0.0000000
fix           :       0.0000000
total E       :     -17.7204851
atomizationE  :       3.5283524     2214.07
(atE without considerung molecular charge,
 total energy contains solvation terms)
H-L gap (eV)  :         11.5214
 !!!!!!!!!!!!!!!!!!!!!!!!!!!!!!!!!!!
 ! Note: the input coordinates are !
 ! NOT overwritten. The optimized  !
 ! ones are on file <xtbopt.coord> !
 ! (or on <xtbopt.xyz> if it was a !
 ! xyz file)                       !
 !!!!!!!!!!!!!!!!!!!!!!!!!!!!!!!!!!!
 
Refinement of some symmetry elements was terminated before convergence was reached.
Some symmetry elements may remain unidentified.
Molecule has the following symmetry elements: (C2) 2*(sigma) 
It seems to be the C2v point group
c2v symmetry found (for desy threshold:  0.10E+00) used in thermo
  q data taken from xtbrestart
  CAMM data taken from xtbrestart
 
             =======================================
             |                                     |
             |         Numerical Hessian           |
             |                                     |
             =======================================
step length          :   0.00500
SCC accuracy         :   0.30000
Hessian scale factor :   1.00000
frozen atoms in %    :   0.00000    0
RMS gradient         :   0.00010
estimated CPU  time      0.01 min
estimated wall time      0.01 min
 
 writing file <hessian>.
 
 projected vibrational frequencies (cm-1)
eig.   :       -0.00    -0.00    -0.00    -0.00     0.00     0.00
eig.   :       97.71    98.56   183.96   202.13   209.01   406.91
eig.   :      432.42   834.81   845.39   893.11   972.17  1085.55
eig.   :     1092.31  1134.33  1141.08  1167.17  1167.47  1251.63
eig.   :     1259.43  1333.04  1357.25  1397.81  1404.09  1474.50
eig.   :     1475.29  1493.95  1495.50  1498.44  1504.16  2817.28
eig.   :     2817.76  2852.42  2860.62  3045.30  3045.62  3050.81
eig.   :     3051.32  3054.10  3055.27
 reduced masses (amu)
   1:  9.83   2: 11.04   3:  8.35   4:  8.42   5: 10.53   6: 10.22   7:  5.27   8: 10.92
   9:  9.27  10:  2.55  11:  3.64  12:  9.30  13:  9.97  14:  1.86  15:  2.03  16:  7.08
  17:  7.57  18:  8.45  19:  9.44  20: 11.46  21:  4.63  22:  8.34  23:  6.67  24:  2.03
  25:  2.28  26:  3.32  27:  3.96  28:  3.30  29:  3.70  30:  1.54  31:  1.54  32:  1.55
  33:  1.55  34:  1.87  35:  1.80  36:  1.94  37:  1.98  38:  1.42  39:  1.41  40:  1.60
  41:  1.57  42:  1.96  43:  1.96  44:  1.61  45:  1.64
 IR intensities (amu)
   1:  0.13   2:  0.07   3:  0.29   4:  0.18   5:  0.09   6:  0.14   7:  0.00   8:  0.35
   9:  0.11  10:  0.00  11:  0.30  12:  0.08  13:  0.08  14:  0.00  15:  0.11  16:  0.54
  17:  0.46  18:  0.26  19:  0.26  20:  1.30  21:  0.03  22:  0.73  23:  0.61  24:  0.00
  25:  0.11  26:  0.41  27:  0.10  28:  0.17  29:  0.09  30:  0.00  31:  0.03  32:  0.01
  33:  0.04  34:  0.08  35:  0.16  36:  0.56  37:  0.14  38:  0.15  39:  0.45  40:  0.23
  41:  0.09  42:  0.01  43:  0.27  44:  0.03  45:  0.23
 output can be read by thermo (or use thermo option).
 writing <g98.out> molden fake output.
 recommended (thermochemical) frequency scaling factor: 1.0
                    ==================
                    thermo calculation
                    ==================
Nvib :   39 Nimag : 0  symmetry :  c2v  rot number :  2  scale factor : 1.00 sthr :  50.
omega= 97.71     Gvib=    -1.043     Grot=    -0.858     Gused=    -1.031
omega= 98.56     Gvib=    -1.038     Grot=    -0.855     Gused=    -1.027
omega=183.96     Gvib=    -0.682     Grot=    -0.670     Gused=    -0.682
omega=202.13     Gvib=    -0.630     Grot=    -0.643     Gused=    -0.630
omega=209.01     Gvib=    -0.612     Grot=    -0.633     Gused=    -0.612
 
   temp. (K)  partition function   enthalpy   heat capacity  entropy
                                   cal/mol     cal/K/mol   cal/K/mol   J/K/mol
 298.15  VIB   44.2                 2638.586     17.183     16.302
         ROT  0.470E+05              888.752      2.981     24.360
         INT  0.208E+07             3527.339     20.164     40.663
         TR   0.617E+27             1481.254      4.968     38.808
         TOT                        5008.5927    25.1320    79.4704   332.5029
                     Eh         kcal/mol          kJ/mol 
ZPVE            0.133409         83.7152         350.263    
H(0)-H(T)+PV    0.798170E-02     5.00859         20.9559    
H(T)            0.141390         88.7238         371.219    
T*S             0.377589E-01     23.6941         99.1357    
G(T)            0.103631         65.0297         272.083    
    -17.61685368  <=== TOTAL FREE ENERGY in Eh incl. el.,ZPVE,RRHO,solv. parts
 
Eat (element increment corrected) /kcal :  1590.043
        -237.180  <=== HOF(298)/kcal, to be compared to exptl. data
 
 normal mode %tage of torsion character
   1:  0.00   2:  0.00   3:  0.00   4:  0.00   5:  0.00   6:  0.00   7:  0.40   8:  0.75
   9:  0.26  10:  0.80  11:  0.88  12:  0.26  13:  0.09  14:  0.42  15:  0.62  16:  0.12
  17:  0.07  18:  0.16  19:  0.13  20:  0.16  21:  0.26  22:  0.30  23:  0.28  24:  0.18
  25:  0.12  26:  0.44  27:  0.36  28:  0.00  29:  0.06  30:  0.93  31:  0.93  32:  0.70
  33:  0.88  34:  0.33  35:  0.29  36:  0.20  37:  0.09  38:  0.02  39:  0.01  40:  0.02
  41:  0.02  42:  0.05  43:  0.05  44:  0.02  45:  0.02
 recommended # of modes for mode following           4
 
speedup  0.96
cpu  time for all    0.82 s
wall time for all    0.85 s
