 Entering Gaussian System
 *********************************************
 Gaussian 98:
 frequency output generated by the xtb code
 *********************************************
                         Standard orientation:
 --------------------------------------------------------------------
  Center     Atomic     Atomic              Coordinates (Angstroms)
  Number     Number      Type              X           Y           Z
 --------------------------------------------------------------------
    1          6             0       -0.193281   -1.189727    0.950555
    2          1             0        0.162687   -0.685543    0.036544
    3          1             0       -1.295636   -1.198953    0.919140
    4          8             0        0.247986   -0.487157    2.087763
    5          6             0       -0.195192    0.848232    2.129614
    6          1             0       -1.297661    0.878241    2.127448
    7          1             0        0.155343    1.388229    1.234160
    8          6             0        0.345412   -2.609646    1.014814
    9          1             0       -0.011034   -3.097941    1.917356
   10          1             0        0.014744   -3.172942    0.146671
   11          1             0        1.431290   -2.590835    1.038935
   12          6             0        0.348915    1.503669    3.388529
   13          1             0        1.434768    1.473360    3.379446
   14          1             0        0.018512    2.537217    3.442759
   15          1             0       -0.003603    0.967057    4.264791
 --------------------------------------------------------------------
     1 basis functions        1 primitive gaussians
     1 alpha electrons        1 beta electrons
 
 Harmonic frequencies (cm**-1), IR intensities (KM/Mole),
 Raman scattering activities (A**4/amu), Raman depolarization ratios,
 reduced masses (AMU), force constants (mDyne/A) and normal coordinates:
                      1                      2                      3
                        a                      a                      a 
 Frequencies --    97.7142                98.5589               183.9566
 Red. masses --     5.2709                10.9233                 9.2746
 Frc consts  --     0.0000                 0.0000                 0.0000
 IR Inten    --     0.0020                 0.3484                 0.1105
 Raman Activ --     0.0000                 0.0000                 0.0000
 Depolar     --     0.0000                 0.0000                 0.0000
 Atom AN      X      Y      Z        X      Y      Z        X      Y      Z
   1   6    -0.32  -0.11   0.20    -0.03  -0.01   0.02     0.10   0.02   0.19
   2   1    -0.26   0.00   0.01     0.05   0.08   0.07     0.02   0.06   0.08
   3   1    -0.10  -0.13   0.21    -0.00  -0.06  -0.10     0.03   0.06   0.08
   4   8    -0.00  -0.00   0.00    -0.58  -0.20   0.35     0.25  -0.18   0.31
   5   6     0.32   0.11  -0.20    -0.03  -0.01   0.02     0.10  -0.17   0.08
   6   1     0.10   0.12  -0.22    -0.01   0.12   0.01     0.03  -0.10  -0.01
   7   1     0.27   0.01  -0.00     0.05  -0.10  -0.03     0.02  -0.10  -0.01
   8   6     0.16   0.06  -0.10     0.27   0.09  -0.16    -0.19  -0.11  -0.39
   9   1     0.27   0.00   0.05     0.01  -0.07  -0.13    -0.06  -0.12  -0.16
  10   1    -0.08  -0.03   0.05     0.22   0.08  -0.13    -0.13   0.10  -0.17
  11   1     0.05   0.11  -0.25     0.07   0.10   0.08    -0.05  -0.12  -0.15
  12   6    -0.16  -0.06   0.10     0.27   0.09  -0.16    -0.19   0.39  -0.10
  13   1    -0.05  -0.16   0.22     0.07  -0.12  -0.05    -0.05   0.19   0.03
  14   1     0.08   0.03  -0.05     0.22   0.07  -0.13    -0.13   0.10  -0.17
  15   1    -0.27   0.05  -0.02     0.01   0.15  -0.00    -0.06   0.20   0.02
                      4                      5                      6
                        a                      a                      a 
 Frequencies --   202.1257               209.0071               406.9051
 Red. masses --     2.5469                 3.6422                 9.3049
 Frc consts  --     0.0000                 0.0000                 0.0000
 IR Inten    --     0.0018                 0.2981                 0.0826
 Raman Activ --     0.0000                 0.0000                 0.0000
 Depolar     --     0.0000                 0.0000                 0.0000
 Atom AN      X      Y      Z        X      Y      Z        X      Y      Z
   1   6    -0.21  -0.08   0.13    -0.12  -0.04   0.07     0.23  -0.06   0.35
   2   1    -0.14  -0.01   0.01    -0.13  -0.03  -0.03     0.06  -0.03   0.09
   3   1    -0.06  -0.06   0.11    -0.04  -0.02   0.12     0.06  -0.02   0.09
   4   8     0.00  -0.00   0.00     0.31   0.11  -0.19     0.00   0.37   0.21
   5   6     0.21   0.07  -0.13    -0.12  -0.04   0.07    -0.23   0.27  -0.22
   6   1     0.06   0.06  -0.11    -0.04  -0.10   0.08    -0.07   0.06  -0.06
   7   1     0.14   0.01  -0.02    -0.13   0.04   0.02    -0.06   0.06  -0.07
   8   6     0.03   0.01  -0.02    -0.02  -0.00   0.02    -0.02  -0.22  -0.16
   9   1    -0.23  -0.18  -0.19    -0.26  -0.15  -0.17    -0.01  -0.18  -0.11
  10   1     0.32   0.11  -0.20     0.29   0.10  -0.18    -0.11   0.11  -0.12
  11   1    -0.00   0.09   0.33    -0.01   0.06   0.34    -0.00  -0.18  -0.12
  12   6    -0.03  -0.01   0.02    -0.02  -0.01   0.01     0.02  -0.25  -0.11
  13   1    -0.00   0.33  -0.08    -0.01  -0.33   0.12     0.00  -0.19  -0.10
  14   1    -0.32  -0.11   0.20     0.30   0.10  -0.18     0.11  -0.05   0.16
  15   1     0.22  -0.25  -0.05    -0.26   0.23   0.04     0.01  -0.19  -0.10
                      7                      8                      9
                        a                      a                      a 
 Frequencies --   432.4164               834.8137               845.3935
 Red. masses --     9.9725                 1.8639                 2.0323
 Frc consts  --     0.0000                 0.0000                 0.0000
 IR Inten    --     0.0845                 0.0012                 0.1068
 Raman Activ --     0.0000                 0.0000                 0.0000
 Depolar     --     0.0000                 0.0000                 0.0000
 Atom AN      X      Y      Z        X      Y      Z        X      Y      Z
   1   6    -0.02   0.32   0.15    -0.14  -0.05   0.09    -0.13  -0.05   0.08
   2   1    -0.01   0.14   0.07     0.30  -0.18   0.05     0.27  -0.20   0.03
   3   1    -0.01   0.14   0.07    -0.03   0.27  -0.22    -0.02   0.28  -0.18
   4   8     0.20  -0.14   0.24     0.00  -0.00  -0.00     0.10   0.04  -0.06
   5   6    -0.02  -0.29  -0.20     0.14   0.05  -0.09    -0.13  -0.04   0.08
   6   1    -0.01  -0.13  -0.09     0.03  -0.05   0.34    -0.03   0.01  -0.34
   7   1    -0.01  -0.13  -0.09    -0.29  -0.04  -0.18     0.27   0.07   0.18
   8   6    -0.07   0.43   0.12    -0.08  -0.03   0.05    -0.09  -0.03   0.05
   9   1    -0.02   0.15   0.05     0.22  -0.23  -0.02     0.22  -0.24  -0.02
  10   1     0.00   0.08   0.05     0.09   0.03  -0.05     0.09   0.03  -0.06
  11   1    -0.02   0.15   0.06    -0.02   0.30  -0.10    -0.02   0.31  -0.10
  12   6    -0.07  -0.32  -0.31     0.08   0.03  -0.05    -0.09  -0.03   0.05
  13   1    -0.02  -0.12  -0.10     0.02   0.07   0.31    -0.02  -0.07  -0.32
  14   1     0.00  -0.09  -0.05    -0.09  -0.03   0.05     0.09   0.03  -0.06
  15   1    -0.02  -0.12  -0.11    -0.22  -0.14  -0.19     0.22   0.14   0.20
                     10                     11                     12
                        a                      a                      a 
 Frequencies --   893.1059               972.1707              1085.5450
 Red. masses --     7.0825                 7.5700                 8.4470
 Frc consts  --     0.0000                 0.0000                 0.0000
 IR Inten    --     0.5392                 0.4578                 0.2584
 Raman Activ --     0.0000                 0.0000                 0.0000
 Depolar     --     0.0000                 0.0000                 0.0000
 Atom AN      X      Y      Z        X      Y      Z        X      Y      Z
   1   6     0.13   0.05   0.25    -0.10   0.10  -0.11     0.19  -0.37   0.11
   2   1     0.03  -0.08  -0.00    -0.02   0.12   0.03     0.05  -0.09   0.04
   3   1     0.03  -0.08  -0.00    -0.02   0.12   0.03     0.05  -0.09   0.04
   4   8    -0.26   0.18  -0.32     0.00   0.40   0.23    -0.00   0.09   0.05
   5   6     0.13  -0.24   0.08     0.10  -0.04   0.14    -0.20  -0.09  -0.37
   6   1     0.03   0.04   0.07     0.02   0.09   0.09    -0.05  -0.01  -0.09
   7   1     0.03   0.04   0.07     0.02   0.09   0.09    -0.05  -0.01  -0.09
   8   6     0.05   0.16   0.18    -0.00  -0.30  -0.18    -0.21   0.26  -0.19
   9   1    -0.01  -0.17  -0.08     0.03   0.10   0.06    -0.04   0.24   0.05
  10   1    -0.18   0.36  -0.09     0.18  -0.38   0.08     0.07  -0.12   0.04
  11   1     0.02  -0.16  -0.10    -0.00   0.08   0.08    -0.06   0.23   0.06
  12   6     0.05  -0.23  -0.05     0.00  -0.30  -0.17     0.21  -0.03   0.32
  13   1     0.02   0.16   0.09     0.00   0.11   0.03     0.06   0.17   0.17
  14   1    -0.19  -0.10  -0.36    -0.18  -0.12  -0.37    -0.07  -0.03  -0.12
  15   1    -0.01   0.15   0.11    -0.03   0.10   0.05     0.04   0.16   0.18
                     13                     14                     15
                        a                      a                      a 
 Frequencies --  1092.3070              1134.3272              1141.0844
 Red. masses --     9.4420                11.4608                 4.6291
 Frc consts  --     0.0000                 0.0000                 0.0000
 IR Inten    --     0.2580                 1.3011                 0.0274
 Raman Activ --     0.0000                 0.0000                 0.0000
 Depolar     --     0.0000                 0.0000                 0.0000
 Atom AN      X      Y      Z        X      Y      Z        X      Y      Z
   1   6     0.07  -0.44  -0.14    -0.14  -0.22  -0.37    -0.29  -0.10   0.17
   2   1     0.04  -0.19  -0.06    -0.01  -0.12  -0.10     0.22   0.10   0.22
   3   1     0.03  -0.20  -0.05    -0.02  -0.12  -0.09    -0.06  -0.05  -0.32
   4   8     0.13  -0.10   0.17     0.00   0.52   0.30    -0.00   0.01   0.01
   5   6     0.07   0.34   0.31     0.14  -0.43  -0.00     0.29   0.09  -0.17
   6   1     0.03   0.14   0.15     0.02  -0.13  -0.06     0.06  -0.30   0.12
   7   1     0.04   0.14   0.14     0.02  -0.15  -0.05    -0.22   0.24  -0.03
   8   6    -0.13   0.33  -0.02     0.02   0.10   0.09     0.17   0.06  -0.10
   9   1    -0.05   0.10  -0.01    -0.02  -0.08  -0.04    -0.14   0.19  -0.00
  10   1    -0.06   0.12  -0.02    -0.07   0.15  -0.04    -0.08  -0.03   0.05
  11   1    -0.04   0.10  -0.02     0.00  -0.06  -0.06     0.04  -0.22   0.06
  12   6    -0.13  -0.15  -0.30    -0.02   0.13   0.04    -0.17  -0.06   0.10
  13   1    -0.04  -0.04  -0.10    -0.00  -0.08  -0.02    -0.04  -0.06  -0.22
  14   1    -0.06  -0.04  -0.12     0.07   0.04   0.15     0.08   0.03  -0.04
  15   1    -0.05  -0.04  -0.09     0.02  -0.08  -0.04     0.14   0.09   0.16
                     16                     17                     18
                        a                      a                      a 
 Frequencies --  1167.1662              1167.4741              1251.6318
 Red. masses --     8.3372                 6.6726                 2.0318
 Frc consts  --     0.0000                 0.0000                 0.0000
 IR Inten    --     0.7312                 0.6061                 0.0012
 Raman Activ --     0.0000                 0.0000                 0.0000
 Depolar     --     0.0000                 0.0000                 0.0000
 Atom AN      X      Y      Z        X      Y      Z        X      Y      Z
   1   6     0.36  -0.01   0.21     0.12   0.13  -0.33    -0.06  -0.02   0.03
   2   1    -0.09  -0.05  -0.05    -0.21  -0.03  -0.20     0.02  -0.39  -0.20
   3   1     0.07  -0.03   0.20     0.02   0.00   0.22    -0.02   0.39   0.20
   4   8    -0.31   0.12  -0.19    -0.04  -0.15   0.26    -0.00  -0.00  -0.00
   5   6     0.36  -0.18   0.11     0.12   0.22  -0.28     0.06   0.02  -0.04
   6   1     0.07  -0.16   0.12     0.02  -0.20   0.11     0.02   0.37   0.24
   7   1    -0.08   0.06   0.02    -0.22   0.18  -0.08    -0.02  -0.37  -0.24
   8   6    -0.22   0.00  -0.12    -0.08  -0.07   0.20     0.17   0.06  -0.10
   9   1     0.07   0.07   0.05     0.12  -0.26  -0.03    -0.11   0.15  -0.01
  10   1     0.13  -0.17   0.02     0.01   0.14  -0.07    -0.05  -0.02   0.03
  11   1    -0.06   0.27   0.04    -0.02   0.09  -0.10     0.04  -0.17   0.05
  12   6    -0.22   0.11  -0.06    -0.08  -0.14   0.17    -0.17  -0.06   0.10
  13   1    -0.06  -0.17  -0.21    -0.02   0.04  -0.13    -0.04  -0.04  -0.17
  14   1     0.13   0.07   0.15     0.01  -0.01  -0.15     0.05   0.02  -0.03
  15   1     0.07  -0.08  -0.03     0.12   0.16   0.21     0.11   0.06   0.13
                     19                     20                     21
                        a                      a                      a 
 Frequencies --  1259.4316              1333.0355              1357.2474
 Red. masses --     2.2763                 3.3160                 3.9564
 Frc consts  --     0.0000                 0.0000                 0.0000
 IR Inten    --     0.1146                 0.4108                 0.1015
 Raman Activ --     0.0000                 0.0000                 0.0000
 Depolar     --     0.0000                 0.0000                 0.0000
 Atom AN      X      Y      Z        X      Y      Z        X      Y      Z
   1   6     0.04   0.01  -0.02    -0.03   0.28   0.12    -0.05   0.30   0.09
   2   1     0.01   0.39   0.20     0.01  -0.37  -0.21     0.05  -0.34  -0.17
   3   1     0.02  -0.38  -0.22     0.00  -0.38  -0.20     0.00  -0.35  -0.14
   4   8     0.14   0.05  -0.09    -0.00   0.03   0.02     0.09  -0.06   0.11
   5   6     0.03   0.01  -0.02     0.03   0.24   0.18    -0.05  -0.23  -0.22
   6   1     0.02   0.38   0.22    -0.00  -0.37  -0.23     0.00   0.30   0.23
   7   1     0.00  -0.37  -0.24    -0.01  -0.37  -0.22     0.05   0.32   0.21
   8   6    -0.15  -0.05   0.09    -0.06   0.00  -0.09    -0.07   0.08  -0.06
   9   1     0.10  -0.13   0.01     0.05  -0.01   0.00     0.09  -0.10  -0.03
  10   1     0.05   0.02  -0.03     0.06  -0.13   0.03     0.10  -0.18   0.06
  11   1    -0.04   0.16  -0.05    -0.01  -0.03   0.04    -0.01  -0.13   0.02
  12   6    -0.15  -0.05   0.09     0.06  -0.07   0.05    -0.07   0.02  -0.10
  13   1    -0.04  -0.04  -0.16     0.01   0.02  -0.05    -0.01   0.04   0.13
  14   1     0.05   0.02  -0.03    -0.06  -0.04  -0.12     0.10   0.04   0.19
  15   1     0.10   0.06   0.12    -0.05  -0.00  -0.01     0.09   0.08   0.07
                     22                     23                     24
                        a                      a                      a 
 Frequencies --  1397.8097              1404.0907              1474.4971
 Red. masses --     3.2954                 3.6956                 1.5397
 Frc consts  --     0.0000                 0.0000                 0.0000
 IR Inten    --     0.1706                 0.0888                 0.0005
 Raman Activ --     0.0000                 0.0000                 0.0000
 Depolar     --     0.0000                 0.0000                 0.0000
 Atom AN      X      Y      Z        X      Y      Z        X      Y      Z
   1   6     0.01  -0.05  -0.02     0.03  -0.15  -0.04     0.03   0.01  -0.02
   2   1     0.03   0.05   0.05    -0.00   0.14   0.08    -0.01   0.02  -0.00
   3   1     0.00   0.04   0.06    -0.00   0.14   0.08     0.01  -0.02   0.00
   4   8    -0.00  -0.02  -0.01    -0.04   0.03  -0.05     0.00   0.00   0.00
   5   6    -0.01  -0.04  -0.04     0.03   0.11   0.11    -0.03  -0.01   0.02
   6   1    -0.00   0.08   0.01    -0.00  -0.14  -0.08    -0.01  -0.00  -0.02
   7   1    -0.03   0.07   0.02    -0.00  -0.14  -0.08     0.01   0.00   0.02
   8   6    -0.10   0.30   0.01    -0.09   0.29   0.03     0.12   0.04  -0.08
   9   1     0.13  -0.30  -0.12     0.11  -0.28  -0.12    -0.09  -0.25  -0.18
  10   1     0.19  -0.29   0.14     0.17  -0.26   0.13    -0.41  -0.15   0.25
  11   1    -0.00  -0.35  -0.04    -0.00  -0.32  -0.05     0.00   0.22   0.24
  12   6     0.10   0.16   0.25    -0.09  -0.17  -0.24    -0.13  -0.04   0.08
  13   1     0.00  -0.21  -0.28    -0.00   0.20   0.26    -0.00   0.32   0.07
  14   1    -0.19  -0.02  -0.32     0.17   0.02   0.29     0.42   0.15  -0.26
  15   1    -0.13  -0.26  -0.20     0.11   0.24   0.18     0.09  -0.29  -0.13
                     25                     26                     27
                        a                      a                      a 
 Frequencies --  1475.2895              1493.9516              1495.5027
 Red. masses --     1.5372                 1.5514                 1.5512
 Frc consts  --     0.0000                 0.0000                 0.0000
 IR Inten    --     0.0299                 0.0114                 0.0442
 Raman Activ --     0.0000                 0.0000                 0.0000
 Depolar     --     0.0000                 0.0000                 0.0000
 Atom AN      X      Y      Z        X      Y      Z        X      Y      Z
   1   6     0.03   0.01  -0.02     0.03  -0.06   0.02    -0.01  -0.03  -0.03
   2   1    -0.01   0.02  -0.00    -0.18   0.05  -0.05    -0.02   0.03   0.00
   3   1     0.01  -0.02   0.00    -0.00   0.11  -0.16    -0.00   0.03  -0.01
   4   8    -0.00  -0.00   0.00    -0.00   0.02   0.01     0.00  -0.00   0.01
   5   6     0.03   0.01  -0.02    -0.03  -0.01  -0.06    -0.01   0.04   0.01
   6   1     0.01   0.00   0.01     0.00  -0.08   0.18    -0.00  -0.01  -0.03
   7   1    -0.01  -0.00  -0.02     0.18  -0.02   0.07    -0.02  -0.02  -0.02
   8   6     0.12   0.04  -0.08    -0.07   0.01  -0.12    -0.08  -0.00  -0.13
   9   1    -0.09  -0.26  -0.19     0.40   0.00   0.15     0.43   0.01   0.17
  10   1    -0.42  -0.15   0.26    -0.09   0.14  -0.07    -0.10   0.16  -0.08
  11   1     0.00   0.22   0.24    -0.01  -0.14   0.40    -0.01  -0.15   0.44
  12   6     0.12   0.04  -0.08     0.07  -0.10   0.06    -0.08   0.11  -0.06
  13   1     0.00  -0.32  -0.07     0.01   0.28  -0.33    -0.01  -0.31   0.35
  14   1    -0.41  -0.15   0.25     0.09   0.01   0.15    -0.10  -0.01  -0.17
  15   1    -0.09   0.29   0.13    -0.40   0.13  -0.07     0.43  -0.15   0.07
                     28                     29                     30
                        a                      a                      a 
 Frequencies --  1498.4359              1504.1627              2817.2832
 Red. masses --     1.8704                 1.8031                 1.9448
 Frc consts  --     0.0000                 0.0000                 0.0000
 IR Inten    --     0.0844                 0.1631                 0.5565
 Raman Activ --     0.0000                 0.0000                 0.0000
 Depolar     --     0.0000                 0.0000                 0.0000
 Atom AN      X      Y      Z        X      Y      Z        X      Y      Z
   1   6     0.11  -0.08   0.13     0.10  -0.07   0.13     0.12   0.04  -0.07
   2   1    -0.42   0.04  -0.14    -0.45   0.02  -0.17    -0.10  -0.16   0.30
   3   1     0.01   0.19  -0.40     0.01   0.18  -0.45    -0.35  -0.00  -0.02
   4   8     0.00   0.03   0.02     0.04  -0.03   0.05     0.01   0.00  -0.01
   5   6    -0.11   0.07  -0.13     0.10  -0.08   0.12     0.20   0.07  -0.13
   6   1    -0.00  -0.25   0.36     0.00   0.30  -0.38    -0.58   0.03  -0.01
   7   1     0.41  -0.10   0.10    -0.45   0.14  -0.10    -0.17  -0.29   0.47
   8   6     0.03   0.02   0.06    -0.00   0.01   0.01    -0.00  -0.00   0.00
   9   1    -0.17  -0.02  -0.07    -0.01  -0.01  -0.01     0.00   0.01  -0.01
  10   1     0.05  -0.08   0.04     0.01  -0.01   0.01    -0.00  -0.00   0.00
  11   1     0.01   0.04  -0.18     0.00  -0.01  -0.01     0.02  -0.00   0.00
  12   6    -0.03   0.06  -0.01    -0.00  -0.01  -0.01    -0.00  -0.00   0.00
  13   1    -0.01  -0.14   0.12     0.00   0.02   0.00     0.02  -0.00   0.00
  14   1    -0.05  -0.00  -0.09     0.01  -0.00   0.02    -0.00  -0.00   0.00
  15   1     0.17  -0.08   0.02    -0.01   0.01   0.01     0.01   0.01  -0.02
                     31                     32                     33
                        a                      a                      a 
 Frequencies --  2817.7606              2852.4175              2860.6150
 Red. masses --     1.9768                 1.4216                 1.4109
 Frc consts  --     0.0000                 0.0000                 0.0000
 IR Inten    --     0.1373                 0.1536                 0.4534
 Raman Activ --     0.0000                 0.0000                 0.0000
 Depolar     --     0.0000                 0.0000                 0.0000
 Atom AN      X      Y      Z        X      Y      Z        X      Y      Z
   1   6    -0.21  -0.07   0.13     0.08  -0.06   0.09    -0.08   0.06  -0.09
   2   1     0.17   0.27  -0.48     0.19   0.22  -0.39    -0.19  -0.21   0.40
   3   1     0.58  -0.01   0.03    -0.49  -0.02   0.01     0.50   0.03  -0.01
   4   8    -0.00  -0.00   0.00    -0.00   0.02   0.01    -0.02   0.01  -0.02
   5   6     0.13   0.04  -0.08    -0.08   0.05  -0.10    -0.08   0.05  -0.10
   6   1    -0.35   0.01  -0.01     0.49   0.00  -0.03     0.48  -0.00  -0.03
   7   1    -0.10  -0.17   0.29    -0.19  -0.24   0.39    -0.18  -0.24   0.38
   8   6     0.00   0.00  -0.00    -0.00  -0.00  -0.00     0.00   0.00   0.01
   9   1    -0.01  -0.01   0.02    -0.00  -0.01   0.01     0.01   0.01  -0.01
  10   1     0.00   0.00  -0.00     0.00   0.00   0.01    -0.00  -0.01  -0.01
  11   1    -0.02   0.00  -0.00     0.01  -0.00  -0.00    -0.02  -0.00   0.00
  12   6    -0.00  -0.00   0.00     0.00  -0.00  -0.00     0.00  -0.01   0.00
  13   1     0.01  -0.00   0.00    -0.01  -0.00   0.00    -0.02   0.00   0.00
  14   1    -0.00  -0.00   0.00    -0.00   0.01   0.00    -0.00   0.01   0.00
  15   1     0.00   0.01  -0.01     0.00   0.01  -0.01     0.01   0.01  -0.01
                     34                     35                     36
                        a                      a                      a 
 Frequencies --  3045.2963              3045.6190              3050.8081
 Red. masses --     1.5961                 1.5663                 1.9586
 Frc consts  --     0.0000                 0.0000                 0.0000
 IR Inten    --     0.2259                 0.0914                 0.0129
 Raman Activ --     0.0000                 0.0000                 0.0000
 Depolar     --     0.0000                 0.0000                 0.0000
 Atom AN      X      Y      Z        X      Y      Z        X      Y      Z
   1   6    -0.00  -0.00  -0.00     0.00   0.00   0.01    -0.01  -0.00   0.01
   2   1    -0.00  -0.00   0.00     0.00   0.00  -0.00     0.01   0.01  -0.01
   3   1     0.00   0.00   0.00    -0.01  -0.00  -0.00     0.02   0.00  -0.00
   4   8    -0.00   0.00  -0.00    -0.00   0.00  -0.00    -0.00   0.00   0.00
   5   6     0.00  -0.01   0.00     0.00  -0.00   0.00     0.01   0.00  -0.01
   6   1    -0.00   0.00   0.00    -0.00   0.00   0.00    -0.02   0.00   0.00
   7   1     0.00   0.00  -0.00     0.00   0.00  -0.00    -0.01  -0.01   0.01
   8   6    -0.03  -0.08  -0.11     0.04   0.11   0.13    -0.16  -0.06   0.09
   9   1     0.02   0.02  -0.07    -0.03  -0.04   0.12     0.13   0.19  -0.37
  10   1     0.18   0.29   0.46    -0.24  -0.38  -0.61    -0.02  -0.00   0.02
  11   1    -0.08  -0.01  -0.02     0.13   0.02   0.02     0.46   0.01   0.02
  12   6     0.04  -0.18  -0.03     0.03  -0.13  -0.02     0.18   0.06  -0.11
  13   1     0.11  -0.03  -0.00     0.10  -0.02  -0.00    -0.51   0.03  -0.00
  14   1    -0.24   0.72   0.03    -0.18   0.54   0.02     0.02   0.01  -0.01
  15   1    -0.03  -0.07   0.08    -0.03  -0.06   0.07    -0.14  -0.25   0.39
                     37                     38                     39
                        a                      a                      a 
 Frequencies --  3051.3197              3054.0961              3055.2699
 Red. masses --     1.9581                 1.6114                 1.6384
 Frc consts  --     0.0000                 0.0000                 0.0000
 IR Inten    --     0.2668                 0.0299                 0.2335
 Raman Activ --     0.0000                 0.0000                 0.0000
 Depolar     --     0.0000                 0.0000                 0.0000
 Atom AN      X      Y      Z        X      Y      Z        X      Y      Z
   1   6     0.01   0.00  -0.01    -0.00   0.00  -0.01    -0.01   0.00  -0.01
   2   1    -0.01  -0.01   0.02    -0.01  -0.01   0.01    -0.01  -0.01   0.02
   3   1    -0.02  -0.00  -0.00     0.01   0.00  -0.00     0.02   0.00  -0.00
   4   8    -0.00  -0.00   0.00    -0.00   0.00   0.00     0.00  -0.00   0.00
   5   6     0.01   0.00  -0.01     0.01  -0.00   0.01    -0.01   0.00  -0.01
   6   1    -0.02   0.00   0.00    -0.01  -0.00   0.00     0.02  -0.00  -0.00
   7   1    -0.01  -0.01   0.01     0.01   0.01  -0.01    -0.01  -0.01   0.01
   8   6     0.18   0.06  -0.10    -0.09   0.04  -0.13    -0.09   0.03  -0.14
   9   1    -0.15  -0.22   0.41    -0.18  -0.21   0.40    -0.18  -0.22   0.40
  10   1     0.02   0.01  -0.02     0.03   0.07   0.08     0.04   0.08   0.10
  11   1    -0.51  -0.01  -0.03     0.46   0.02  -0.01     0.47   0.02  -0.01
  12   6     0.16   0.05  -0.10     0.09  -0.10   0.10    -0.09   0.10  -0.10
  13   1    -0.46   0.02  -0.00    -0.47   0.00   0.02     0.46  -0.00  -0.02
  14   1     0.02   0.01  -0.01    -0.03   0.10   0.02     0.03  -0.13  -0.02
  15   1    -0.13  -0.23   0.36     0.18   0.24  -0.40    -0.17  -0.23   0.38
