 Entering Gaussian System
 *********************************************
 Gaussian 98:
 frequency output generated by the xtb code
 *********************************************
                         Standard orientation:
 --------------------------------------------------------------------
  Center     Atomic     Atomic              Coordinates (Angstroms)
  Number     Number      Type              X           Y           Z
 --------------------------------------------------------------------
    1          6             0       -0.193278   -1.189730    0.950552
    2          1             0        0.162690   -0.685543    0.036544
    3          1             0       -1.295633   -1.198961    0.919133
    4          8             0        0.247982   -0.487160    2.087763
    5          6             0       -0.195204    0.848228    2.129615
    6          1             0       -1.297673    0.878231    2.127445
    7          1             0        0.155332    1.388227    1.234163
    8          6             0        0.345422   -2.609646    1.014811
    9          1             0       -0.011024   -3.097945    1.917350
   10          1             0        0.014761   -3.172942    0.146666
   11          1             0        1.431300   -2.590829    1.038936
   12          6             0        0.348896    1.503665    3.388533
   13          1             0        1.434749    1.473361    3.379454
   14          1             0        0.018487    2.537211    3.442763
   15          1             0       -0.003623    0.967050    4.264793
 --------------------------------------------------------------------
     1 basis functions        1 primitive gaussians
     1 alpha electrons        1 beta electrons
 
 Harmonic frequencies (cm**-1), IR intensities (KM/Mole),
 Raman scattering activities (A**4/amu), Raman depolarization ratios,
 reduced masses (AMU), force constants (mDyne/A) and normal coordinates:
                      1                      2                      3
                        a                      a                      a 
 Frequencies --    98.5589                97.7142               209.0071
 Red. masses --    99.0000                99.0000                99.0000
 Frc consts  --    99.0000                99.0000                99.0000
 IR Inten    --    99.0000                99.0000                99.0000
 Raman Activ --     0.0000                 0.0000                 0.0000
 Depolar     --     0.0000                 0.0000                 0.0000
 Atom AN      X      Y      Z        X      Y      Z        X      Y      Z
   1   6    -0.03  -0.01   0.02    -0.32  -0.11   0.20    -0.12  -0.04   0.07
   2   1     0.05   0.08   0.07    -0.26   0.00   0.01    -0.13  -0.03  -0.03
   3   1    -0.00  -0.06  -0.10    -0.10  -0.13   0.21    -0.04  -0.02   0.12
   4   8    -0.58  -0.20   0.35    -0.00  -0.00   0.00     0.31   0.11  -0.19
   5   6    -0.03  -0.01   0.02     0.32   0.11  -0.20    -0.12  -0.04   0.07
   6   1    -0.01   0.12   0.01     0.10   0.12  -0.22    -0.04  -0.10   0.08
   7   1     0.05  -0.10  -0.03     0.27   0.01  -0.00    -0.13   0.04   0.02
   8   6     0.27   0.09  -0.16     0.16   0.06  -0.10    -0.02  -0.00   0.02
   9   1     0.01  -0.07  -0.13     0.27   0.00   0.05    -0.26  -0.15  -0.17
  10   1     0.22   0.08  -0.13    -0.08  -0.03   0.05     0.29   0.10  -0.18
  11   1     0.07   0.10   0.08     0.05   0.11  -0.25    -0.01   0.06   0.34
  12   6     0.27   0.09  -0.16    -0.16  -0.06   0.10    -0.02  -0.01   0.01
  13   1     0.07  -0.12  -0.05    -0.05  -0.16   0.22    -0.01  -0.33   0.12
  14   1     0.22   0.07  -0.13     0.08   0.03  -0.05     0.30   0.10  -0.18
  15   1     0.01   0.15  -0.00    -0.27   0.05  -0.02    -0.26   0.23   0.04
                      4                      5                      6
                        a                      a                      a 
 Frequencies --   202.1257               183.9566               406.9051
 Red. masses --    99.0000                99.0000                99.0000
 Frc consts  --    99.0000                99.0000                99.0000
 IR Inten    --    99.0000                99.0000                99.0000
 Raman Activ --     0.0000                 0.0000                 0.0000
 Depolar     --     0.0000                 0.0000                 0.0000
 Atom AN      X      Y      Z        X      Y      Z        X      Y      Z
   1   6    -0.21  -0.08   0.13     0.10   0.02   0.19     0.23  -0.06   0.35
   2   1    -0.14  -0.01   0.01     0.02   0.06   0.08     0.06  -0.03   0.09
   3   1    -0.06  -0.06   0.11     0.03   0.06   0.08     0.06  -0.02   0.09
   4   8     0.00  -0.00   0.00     0.25  -0.18   0.31     0.00   0.37   0.21
   5   6     0.21   0.07  -0.13     0.10  -0.17   0.08    -0.23   0.27  -0.22
   6   1     0.06   0.06  -0.11     0.03  -0.10  -0.01    -0.07   0.06  -0.06
   7   1     0.14   0.01  -0.02     0.02  -0.10  -0.01    -0.06   0.06  -0.07
   8   6     0.03   0.01  -0.02    -0.19  -0.11  -0.39    -0.02  -0.22  -0.16
   9   1    -0.23  -0.18  -0.19    -0.06  -0.12  -0.16    -0.01  -0.18  -0.11
  10   1     0.32   0.11  -0.20    -0.13   0.10  -0.17    -0.11   0.11  -0.12
  11   1    -0.00   0.09   0.33    -0.05  -0.12  -0.15    -0.00  -0.18  -0.12
  12   6    -0.03  -0.01   0.02    -0.19   0.39  -0.10     0.02  -0.25  -0.11
  13   1    -0.00   0.33  -0.08    -0.05   0.19   0.03     0.00  -0.19  -0.10
  14   1    -0.32  -0.11   0.20    -0.13   0.10  -0.17     0.11  -0.05   0.16
  15   1     0.22  -0.25  -0.05    -0.06   0.20   0.02     0.01  -0.19  -0.10
                      7                      8                      9
                        a                      a                      a 
 Frequencies --   432.4164               845.3935              1474.4971
 Red. masses --    99.0000                99.0000                99.0000
 Frc consts  --    99.0000                99.0000                99.0000
 IR Inten    --    99.0000                99.0000                99.0000
 Raman Activ --     0.0000                 0.0000                 0.0000
 Depolar     --     0.0000                 0.0000                 0.0000
 Atom AN      X      Y      Z        X      Y      Z        X      Y      Z
   1   6    -0.02   0.32   0.15    -0.13  -0.05   0.08     0.03   0.01  -0.02
   2   1    -0.01   0.14   0.07     0.27  -0.20   0.03    -0.01   0.02  -0.00
   3   1    -0.01   0.14   0.07    -0.02   0.28  -0.18     0.01  -0.02   0.00
   4   8     0.20  -0.14   0.24     0.10   0.04  -0.06     0.00   0.00   0.00
   5   6    -0.02  -0.29  -0.20    -0.13  -0.04   0.08    -0.03  -0.01   0.02
   6   1    -0.01  -0.13  -0.09    -0.03   0.01  -0.34    -0.01  -0.00  -0.02
   7   1    -0.01  -0.13  -0.09     0.27   0.07   0.18     0.01   0.00   0.02
   8   6    -0.07   0.43   0.12    -0.09  -0.03   0.05     0.12   0.04  -0.08
   9   1    -0.02   0.15   0.05     0.22  -0.24  -0.02    -0.09  -0.25  -0.18
  10   1     0.00   0.08   0.05     0.09   0.03  -0.06    -0.41  -0.15   0.25
  11   1    -0.02   0.15   0.06    -0.02   0.31  -0.10     0.00   0.22   0.24
  12   6    -0.07  -0.32  -0.31    -0.09  -0.03   0.05    -0.13  -0.04   0.08
  13   1    -0.02  -0.12  -0.10    -0.02  -0.07  -0.32    -0.00   0.32   0.07
  14   1     0.00  -0.09  -0.05     0.09   0.03  -0.06     0.42   0.15  -0.26
  15   1    -0.02  -0.12  -0.11     0.22   0.14   0.20     0.09  -0.29  -0.13
                     10                     11                     12
                        a                      a                      a 
 Frequencies --  1475.2895               834.8137              1495.5027
 Red. masses --    99.0000                99.0000                99.0000
 Frc consts  --    99.0000                99.0000                99.0000
 IR Inten    --    99.0000                99.0000                99.0000
 Raman Activ --     0.0000                 0.0000                 0.0000
 Depolar     --     0.0000                 0.0000                 0.0000
 Atom AN      X      Y      Z        X      Y      Z        X      Y      Z
   1   6     0.03   0.01  -0.02    -0.14  -0.05   0.09    -0.01  -0.03  -0.03
   2   1    -0.01   0.02  -0.00     0.30  -0.18   0.05    -0.02   0.03   0.00
   3   1     0.01  -0.02   0.00    -0.03   0.27  -0.22    -0.00   0.03  -0.01
   4   8    -0.00  -0.00   0.00     0.00  -0.00  -0.00     0.00  -0.00   0.01
   5   6     0.03   0.01  -0.02     0.14   0.05  -0.09    -0.01   0.04   0.01
   6   1     0.01   0.00   0.01     0.03  -0.05   0.34    -0.00  -0.01  -0.03
   7   1    -0.01  -0.00  -0.02    -0.29  -0.04  -0.18    -0.02  -0.02  -0.02
   8   6     0.12   0.04  -0.08    -0.08  -0.03   0.05    -0.08  -0.00  -0.13
   9   1    -0.09  -0.26  -0.19     0.22  -0.23  -0.02     0.43   0.01   0.17
  10   1    -0.42  -0.15   0.26     0.09   0.03  -0.05    -0.10   0.16  -0.08
  11   1     0.00   0.22   0.24    -0.02   0.30  -0.10    -0.01  -0.15   0.44
  12   6     0.12   0.04  -0.08     0.08   0.03  -0.05    -0.08   0.11  -0.06
  13   1     0.00  -0.32  -0.07     0.02   0.07   0.31    -0.01  -0.31   0.35
  14   1    -0.41  -0.15   0.25    -0.09  -0.03   0.05    -0.10  -0.01  -0.17
  15   1    -0.09   0.29   0.13    -0.22  -0.14  -0.19     0.43  -0.15   0.07
                     13                     14                     15
                        a                      a                      a 
 Frequencies --  1493.9516               893.1059               972.1707
 Red. masses --    99.0000                99.0000                99.0000
 Frc consts  --    99.0000                99.0000                99.0000
 IR Inten    --    99.0000                99.0000                99.0000
 Raman Activ --     0.0000                 0.0000                 0.0000
 Depolar     --     0.0000                 0.0000                 0.0000
 Atom AN      X      Y      Z        X      Y      Z        X      Y      Z
   1   6     0.03  -0.06   0.02     0.13   0.05   0.25    -0.10   0.10  -0.11
   2   1    -0.18   0.05  -0.05     0.03  -0.08  -0.00    -0.02   0.12   0.03
   3   1    -0.00   0.11  -0.16     0.03  -0.08  -0.00    -0.02   0.12   0.03
   4   8    -0.00   0.02   0.01    -0.26   0.18  -0.32     0.00   0.40   0.23
   5   6    -0.03  -0.01  -0.06     0.13  -0.24   0.08     0.10  -0.04   0.14
   6   1     0.00  -0.08   0.18     0.03   0.04   0.07     0.02   0.09   0.09
   7   1     0.18  -0.02   0.07     0.03   0.04   0.07     0.02   0.09   0.09
   8   6    -0.07   0.01  -0.12     0.05   0.16   0.18    -0.00  -0.30  -0.18
   9   1     0.40   0.00   0.15    -0.01  -0.17  -0.08     0.03   0.10   0.06
  10   1    -0.09   0.14  -0.07    -0.18   0.36  -0.09     0.18  -0.38   0.08
  11   1    -0.01  -0.14   0.40     0.02  -0.16  -0.10    -0.00   0.08   0.08
  12   6     0.07  -0.10   0.06     0.05  -0.23  -0.05     0.00  -0.30  -0.17
  13   1     0.01   0.28  -0.33     0.02   0.16   0.09     0.00   0.11   0.03
  14   1     0.09   0.01   0.15    -0.19  -0.10  -0.36    -0.18  -0.12  -0.37
  15   1    -0.40   0.13  -0.07    -0.01   0.15   0.11    -0.03   0.10   0.05
                     16                     17                     18
                        a                      a                      a 
 Frequencies --  1167.1662              1141.0844              1333.0355
 Red. masses --    99.0000                99.0000                99.0000
 Frc consts  --    99.0000                99.0000                99.0000
 IR Inten    --    99.0000                99.0000                99.0000
 Raman Activ --     0.0000                 0.0000                 0.0000
 Depolar     --     0.0000                 0.0000                 0.0000
 Atom AN      X      Y      Z        X      Y      Z        X      Y      Z
   1   6     0.36  -0.01   0.21    -0.29  -0.10   0.17    -0.03   0.28   0.12
   2   1    -0.09  -0.05  -0.05     0.22   0.10   0.22     0.01  -0.37  -0.21
   3   1     0.07  -0.03   0.20    -0.06  -0.05  -0.32     0.00  -0.38  -0.20
   4   8    -0.31   0.12  -0.19    -0.00   0.01   0.01    -0.00   0.03   0.02
   5   6     0.36  -0.18   0.11     0.29   0.09  -0.17     0.03   0.24   0.18
   6   1     0.07  -0.16   0.12     0.06  -0.30   0.12    -0.00  -0.37  -0.23
   7   1    -0.08   0.06   0.02    -0.22   0.24  -0.03    -0.01  -0.37  -0.22
   8   6    -0.22   0.00  -0.12     0.17   0.06  -0.10    -0.06   0.00  -0.09
   9   1     0.07   0.07   0.05    -0.14   0.19  -0.00     0.05  -0.01   0.00
  10   1     0.13  -0.17   0.02    -0.08  -0.03   0.05     0.06  -0.13   0.03
  11   1    -0.06   0.27   0.04     0.04  -0.22   0.06    -0.01  -0.03   0.04
  12   6    -0.22   0.11  -0.06    -0.17  -0.06   0.10     0.06  -0.07   0.05
  13   1    -0.06  -0.17  -0.21    -0.04  -0.06  -0.22     0.01   0.02  -0.05
  14   1     0.13   0.07   0.15     0.08   0.03  -0.04    -0.06  -0.04  -0.12
  15   1     0.07  -0.08  -0.03     0.14   0.09   0.16    -0.05  -0.00  -0.01
                     19                     20                     21
                        a                      a                      a 
 Frequencies --  1167.4741              1085.5450              1092.3070
 Red. masses --    99.0000                99.0000                99.0000
 Frc consts  --    99.0000                99.0000                99.0000
 IR Inten    --    99.0000                99.0000                99.0000
 Raman Activ --     0.0000                 0.0000                 0.0000
 Depolar     --     0.0000                 0.0000                 0.0000
 Atom AN      X      Y      Z        X      Y      Z        X      Y      Z
   1   6     0.12   0.13  -0.33     0.19  -0.37   0.11     0.07  -0.44  -0.14
   2   1    -0.21  -0.03  -0.20     0.05  -0.09   0.04     0.04  -0.19  -0.06
   3   1     0.02   0.00   0.22     0.05  -0.09   0.04     0.03  -0.20  -0.05
   4   8    -0.04  -0.15   0.26    -0.00   0.09   0.05     0.13  -0.10   0.17
   5   6     0.12   0.22  -0.28    -0.20  -0.09  -0.37     0.07   0.34   0.31
   6   1     0.02  -0.20   0.11    -0.05  -0.01  -0.09     0.03   0.14   0.15
   7   1    -0.22   0.18  -0.08    -0.05  -0.01  -0.09     0.04   0.14   0.14
   8   6    -0.08  -0.07   0.20    -0.21   0.26  -0.19    -0.13   0.33  -0.02
   9   1     0.12  -0.26  -0.03    -0.04   0.24   0.05    -0.05   0.10  -0.01
  10   1     0.01   0.14  -0.07     0.07  -0.12   0.04    -0.06   0.12  -0.02
  11   1    -0.02   0.09  -0.10    -0.06   0.23   0.06    -0.04   0.10  -0.02
  12   6    -0.08  -0.14   0.17     0.21  -0.03   0.32    -0.13  -0.15  -0.30
  13   1    -0.02   0.04  -0.13     0.06   0.17   0.17    -0.04  -0.04  -0.10
  14   1     0.01  -0.01  -0.15    -0.07  -0.03  -0.12    -0.06  -0.04  -0.12
  15   1     0.12   0.16   0.21     0.04   0.16   0.18    -0.05  -0.04  -0.09
                     22                     23                     24
                        a                      a                      a 
 Frequencies --  1134.3272              1357.2474              1251.6318
 Red. masses --    99.0000                99.0000                99.0000
 Frc consts  --    99.0000                99.0000                99.0000
 IR Inten    --    99.0000                99.0000                99.0000
 Raman Activ --     0.0000                 0.0000                 0.0000
 Depolar     --     0.0000                 0.0000                 0.0000
 Atom AN      X      Y      Z        X      Y      Z        X      Y      Z
   1   6    -0.14  -0.22  -0.37    -0.05   0.30   0.09    -0.06  -0.02   0.03
   2   1    -0.01  -0.12  -0.10     0.05  -0.34  -0.17     0.02  -0.39  -0.20
   3   1    -0.02  -0.12  -0.09     0.00  -0.35  -0.14    -0.02   0.39   0.20
   4   8     0.00   0.52   0.30     0.09  -0.06   0.11    -0.00  -0.00  -0.00
   5   6     0.14  -0.43  -0.00    -0.05  -0.23  -0.22     0.06   0.02  -0.04
   6   1     0.02  -0.13  -0.06     0.00   0.30   0.23     0.02   0.37   0.24
   7   1     0.02  -0.15  -0.05     0.05   0.32   0.21    -0.02  -0.37  -0.24
   8   6     0.02   0.10   0.09    -0.07   0.08  -0.06     0.17   0.06  -0.10
   9   1    -0.02  -0.08  -0.04     0.09  -0.10  -0.03    -0.11   0.15  -0.01
  10   1    -0.07   0.15  -0.04     0.10  -0.18   0.06    -0.05  -0.02   0.03
  11   1     0.00  -0.06  -0.06    -0.01  -0.13   0.02     0.04  -0.17   0.05
  12   6    -0.02   0.13   0.04    -0.07   0.02  -0.10    -0.17  -0.06   0.10
  13   1    -0.00  -0.08  -0.02    -0.01   0.04   0.13    -0.04  -0.04  -0.17
  14   1     0.07   0.04   0.15     0.10   0.04   0.19     0.05   0.02  -0.03
  15   1     0.02  -0.08  -0.04     0.09   0.08   0.07     0.11   0.06   0.13
                     25                     26                     27
                        a                      a                      a 
 Frequencies --  1259.4316              1498.4359              1504.1627
 Red. masses --    99.0000                99.0000                99.0000
 Frc consts  --    99.0000                99.0000                99.0000
 IR Inten    --    99.0000                99.0000                99.0000
 Raman Activ --     0.0000                 0.0000                 0.0000
 Depolar     --     0.0000                 0.0000                 0.0000
 Atom AN      X      Y      Z        X      Y      Z        X      Y      Z
   1   6     0.04   0.01  -0.02     0.11  -0.08   0.13     0.10  -0.07   0.13
   2   1     0.01   0.39   0.20    -0.42   0.04  -0.14    -0.45   0.02  -0.17
   3   1     0.02  -0.38  -0.22     0.01   0.19  -0.40     0.01   0.18  -0.45
   4   8     0.14   0.05  -0.09     0.00   0.03   0.02     0.04  -0.03   0.05
   5   6     0.03   0.01  -0.02    -0.11   0.07  -0.13     0.10  -0.08   0.12
   6   1     0.02   0.38   0.22    -0.00  -0.25   0.36     0.00   0.30  -0.38
   7   1     0.00  -0.37  -0.24     0.41  -0.10   0.10    -0.45   0.14  -0.10
   8   6    -0.15  -0.05   0.09     0.03   0.02   0.06    -0.00   0.01   0.01
   9   1     0.10  -0.13   0.01    -0.17  -0.02  -0.07    -0.01  -0.01  -0.01
  10   1     0.05   0.02  -0.03     0.05  -0.08   0.04     0.01  -0.01   0.01
  11   1    -0.04   0.16  -0.05     0.01   0.04  -0.18     0.00  -0.01  -0.01
  12   6    -0.15  -0.05   0.09    -0.03   0.06  -0.01    -0.00  -0.01  -0.01
  13   1    -0.04  -0.04  -0.16    -0.01  -0.14   0.12     0.00   0.02   0.00
  14   1     0.05   0.02  -0.03    -0.05  -0.00  -0.09     0.01  -0.00   0.02
  15   1     0.10   0.06   0.12     0.17  -0.08   0.02    -0.01   0.01   0.01
                     28                     29                     30
                        a                      a                      a 
 Frequencies --  1404.0907              1397.8097              2817.2832
 Red. masses --    99.0000                99.0000                99.0000
 Frc consts  --    99.0000                99.0000                99.0000
 IR Inten    --    99.0000                99.0000                99.0000
 Raman Activ --     0.0000                 0.0000                 0.0000
 Depolar     --     0.0000                 0.0000                 0.0000
 Atom AN      X      Y      Z        X      Y      Z        X      Y      Z
   1   6     0.03  -0.15  -0.04     0.01  -0.05  -0.02     0.12   0.04  -0.07
   2   1    -0.00   0.14   0.08     0.03   0.05   0.05    -0.10  -0.16   0.30
   3   1    -0.00   0.14   0.08     0.00   0.04   0.06    -0.35  -0.00  -0.02
   4   8    -0.04   0.03  -0.05    -0.00  -0.02  -0.01     0.01   0.00  -0.01
   5   6     0.03   0.11   0.11    -0.01  -0.04  -0.04     0.20   0.07  -0.13
   6   1    -0.00  -0.14  -0.08    -0.00   0.08   0.01    -0.58   0.03  -0.01
   7   1    -0.00  -0.14  -0.08    -0.03   0.07   0.02    -0.17  -0.29   0.47
   8   6    -0.09   0.29   0.03    -0.10   0.30   0.01    -0.00  -0.00   0.00
   9   1     0.11  -0.28  -0.12     0.13  -0.30  -0.12     0.00   0.01  -0.01
  10   1     0.17  -0.26   0.13     0.19  -0.29   0.14    -0.00  -0.00   0.00
  11   1    -0.00  -0.32  -0.05    -0.00  -0.35  -0.04     0.02  -0.00   0.00
  12   6    -0.09  -0.17  -0.24     0.10   0.16   0.25    -0.00  -0.00   0.00
  13   1    -0.00   0.20   0.26     0.00  -0.21  -0.28     0.02  -0.00   0.00
  14   1     0.17   0.02   0.29    -0.19  -0.02  -0.32    -0.00  -0.00   0.00
  15   1     0.11   0.24   0.18    -0.13  -0.26  -0.20     0.01   0.01  -0.02
                     31                     32                     33
                        a                      a                      a 
 Frequencies --  2817.7606              2852.4175              2860.6150
 Red. masses --    99.0000                99.0000                99.0000
 Frc consts  --    99.0000                99.0000                99.0000
 IR Inten    --    99.0000                99.0000                99.0000
 Raman Activ --     0.0000                 0.0000                 0.0000
 Depolar     --     0.0000                 0.0000                 0.0000
 Atom AN      X      Y      Z        X      Y      Z        X      Y      Z
   1   6    -0.21  -0.07   0.13     0.08  -0.06   0.09    -0.08   0.06  -0.09
   2   1     0.17   0.27  -0.48     0.19   0.22  -0.39    -0.19  -0.21   0.40
   3   1     0.58  -0.01   0.03    -0.49  -0.02   0.01     0.50   0.03  -0.01
   4   8    -0.00  -0.00   0.00    -0.00   0.02   0.01    -0.02   0.01  -0.02
   5   6     0.13   0.04  -0.08    -0.08   0.05  -0.10    -0.08   0.05  -0.10
   6   1    -0.35   0.01  -0.01     0.49   0.00  -0.03     0.48  -0.00  -0.03
   7   1    -0.10  -0.17   0.29    -0.19  -0.24   0.39    -0.18  -0.24   0.38
   8   6     0.00   0.00  -0.00    -0.00  -0.00  -0.00     0.00   0.00   0.01
   9   1    -0.01  -0.01   0.02    -0.00  -0.01   0.01     0.01   0.01  -0.01
  10   1     0.00   0.00  -0.00     0.00   0.00   0.01    -0.00  -0.01  -0.01
  11   1    -0.02   0.00  -0.00     0.01  -0.00  -0.00    -0.02  -0.00   0.00
  12   6    -0.00  -0.00   0.00     0.00  -0.00  -0.00     0.00  -0.01   0.00
  13   1     0.01  -0.00   0.00    -0.01  -0.00   0.00    -0.02   0.00   0.00
  14   1    -0.00  -0.00   0.00    -0.00   0.01   0.00    -0.00   0.01   0.00
  15   1     0.00   0.01  -0.01     0.00   0.01  -0.01     0.01   0.01  -0.01
                     34                     35                     36
                        a                      a                      a 
 Frequencies --  3051.3197              3050.8081              3045.2963
 Red. masses --    99.0000                99.0000                99.0000
 Frc consts  --    99.0000                99.0000                99.0000
 IR Inten    --    99.0000                99.0000                99.0000
 Raman Activ --     0.0000                 0.0000                 0.0000
 Depolar     --     0.0000                 0.0000                 0.0000
 Atom AN      X      Y      Z        X      Y      Z        X      Y      Z
   1   6     0.01   0.00  -0.01    -0.01  -0.00   0.01    -0.00  -0.00  -0.00
   2   1    -0.01  -0.01   0.02     0.01   0.01  -0.01    -0.00  -0.00   0.00
   3   1    -0.02  -0.00  -0.00     0.02   0.00  -0.00     0.00   0.00   0.00
   4   8    -0.00  -0.00   0.00    -0.00   0.00   0.00    -0.00   0.00  -0.00
   5   6     0.01   0.00  -0.01     0.01   0.00  -0.01     0.00  -0.01   0.00
   6   1    -0.02   0.00   0.00    -0.02   0.00   0.00    -0.00   0.00   0.00
   7   1    -0.01  -0.01   0.01    -0.01  -0.01   0.01     0.00   0.00  -0.00
   8   6     0.18   0.06  -0.10    -0.16  -0.06   0.09    -0.03  -0.08  -0.11
   9   1    -0.15  -0.22   0.41     0.13   0.19  -0.37     0.02   0.02  -0.07
  10   1     0.02   0.01  -0.02    -0.02  -0.00   0.02     0.18   0.29   0.46
  11   1    -0.51  -0.01  -0.03     0.46   0.01   0.02    -0.08  -0.01  -0.02
  12   6     0.16   0.05  -0.10     0.18   0.06  -0.11     0.04  -0.18  -0.03
  13   1    -0.46   0.02  -0.00    -0.51   0.03  -0.00     0.11  -0.03  -0.00
  14   1     0.02   0.01  -0.01     0.02   0.01  -0.01    -0.24   0.72   0.03
  15   1    -0.13  -0.23   0.36    -0.14  -0.25   0.39    -0.03  -0.07   0.08
                     37                     38                     39
                        a                      a                      a 
 Frequencies --  3055.2699              3045.6190              3054.0961
 Red. masses --    99.0000                99.0000                99.0000
 Frc consts  --    99.0000                99.0000                99.0000
 IR Inten    --    99.0000                99.0000                99.0000
 Raman Activ --     0.0000                 0.0000                 0.0000
 Depolar     --     0.0000                 0.0000                 0.0000
 Atom AN      X      Y      Z        X      Y      Z        X      Y      Z
   1   6    -0.01   0.00  -0.01     0.00   0.00   0.01    -0.00   0.00  -0.01
   2   1    -0.01  -0.01   0.02     0.00   0.00  -0.00    -0.01  -0.01   0.01
   3   1     0.02   0.00  -0.00    -0.01  -0.00  -0.00     0.01   0.00  -0.00
   4   8     0.00  -0.00   0.00    -0.00   0.00  -0.00    -0.00   0.00   0.00
   5   6    -0.01   0.00  -0.01     0.00  -0.00   0.00     0.01  -0.00   0.01
   6   1     0.02  -0.00  -0.00    -0.00   0.00   0.00    -0.01  -0.00   0.00
   7   1    -0.01  -0.01   0.01     0.00   0.00  -0.00     0.01   0.01  -0.01
   8   6    -0.09   0.03  -0.14     0.04   0.11   0.13    -0.09   0.04  -0.13
   9   1    -0.18  -0.22   0.40    -0.03  -0.04   0.12    -0.18  -0.21   0.40
  10   1     0.04   0.08   0.10    -0.24  -0.38  -0.61     0.03   0.07   0.08
  11   1     0.47   0.02  -0.01     0.13   0.02   0.02     0.46   0.02  -0.01
  12   6    -0.09   0.10  -0.10     0.03  -0.13  -0.02     0.09  -0.10   0.10
  13   1     0.46  -0.00  -0.02     0.10  -0.02  -0.00    -0.47   0.00   0.02
  14   1     0.03  -0.13  -0.02    -0.18   0.54   0.02    -0.03   0.10   0.02
  15   1    -0.17  -0.23   0.38    -0.03  -0.06   0.07     0.18   0.24  -0.40
