 Entering Gaussian System
 *********************************************
 Gaussian 98:
 frequency output generated by the xtb code
 *********************************************
                         Standard orientation:
 --------------------------------------------------------------------
  Center     Atomic     Atomic              Coordinates (Angstroms)
  Number     Number      Type              X           Y           Z
 --------------------------------------------------------------------
    1          6             0       -4.120853   -0.718058    0.292397
    2          1             0       -3.743083   -1.738543    0.300668
    3          1             0       -3.735878   -0.214669   -0.687319
    4          1             0       -5.213635   -0.709153    0.244216
    5          8             0       -3.617459   -0.073862    1.416433
    6          1             0       -4.006843    0.804076    1.494379
    7          1             0       -3.300096    0.439350   -1.793971
 --------------------------------------------------------------------
     1 basis functions        1 primitive gaussians
     1 alpha electrons        1 beta electrons
 
 Harmonic frequencies (cm**-1), IR intensities (KM/Mole),
 Raman scattering activities (A**4/amu), Raman depolarization ratios,
 reduced masses (AMU), force constants (mDyne/A) and normal coordinates:
                      1                      2                      3
                        a                      a                      a 
 Frequencies --   289.5067               369.8235               498.6219
 Red. masses --    99.0000                99.0000                99.0000
 Frc consts  --    99.0000                99.0000                99.0000
 IR Inten    --    99.0000                99.0000                99.0000
 Raman Activ --     0.0000                 0.0000                 0.0000
 Depolar     --     0.0000                 0.0000                 0.0000
 Atom AN      X      Y      Z        X      Y      Z        X      Y      Z
   1   6    -0.14  -0.28   0.11    -0.21  -0.00   0.05    -0.10   0.11  -0.01
   2   1    -0.05  -0.08   0.11     0.05   0.04  -0.08     0.35   0.17  -0.25
   3   1    -0.03  -0.08   0.05    -0.13   0.05  -0.00    -0.32   0.24   0.00
   4   1    -0.04  -0.06   0.06    -0.06  -0.11   0.15    -0.05  -0.37   0.24
   5   8     0.04   0.12  -0.21     0.23   0.11  -0.21    -0.08  -0.09   0.08
   6   1     0.19   0.13  -0.27    -0.51  -0.27   0.41     0.37   0.18  -0.22
   7   1     0.24   0.58   0.52     0.47  -0.13   0.19     0.32  -0.23  -0.05
                      4                      5                      6
                        a                      a                      a 
 Frequencies --  1144.6955              1125.7456              1411.2503
 Red. masses --    99.0000                99.0000                99.0000
 Frc consts  --    99.0000                99.0000                99.0000
 IR Inten    --    99.0000                99.0000                99.0000
 Raman Activ --     0.0000                 0.0000                 0.0000
 Depolar     --     0.0000                 0.0000                 0.0000
 Atom AN      X      Y      Z        X      Y      Z        X      Y      Z
   1   6     0.25   0.11  -0.37     0.31   0.30   0.52    -0.12   0.11  -0.04
   2   1    -0.16  -0.06   0.24    -0.05   0.03   0.04     0.04   0.03  -0.35
   3   1    -0.31  -0.29  -0.38    -0.05   0.06   0.06     0.65  -0.36   0.12
   4   1     0.03   0.08   0.54     0.06   0.16   0.25    -0.03  -0.18   0.47
   5   8    -0.11  -0.02   0.16    -0.24  -0.31  -0.47    -0.05   0.02  -0.04
   6   1    -0.01   0.00   0.05    -0.12  -0.09  -0.21     0.04   0.02   0.06
   7   1     0.00  -0.03   0.19     0.03   0.02  -0.06    -0.07   0.02   0.01
                      7                      8                      9
                        a                      a                      a 
 Frequencies --  1389.2112               772.9198              1298.3556
 Red. masses --    99.0000                99.0000                99.0000
 Frc consts  --    99.0000                99.0000                99.0000
 IR Inten    --    99.0000                99.0000                99.0000
 Raman Activ --     0.0000                 0.0000                 0.0000
 Depolar     --     0.0000                 0.0000                 0.0000
 Atom AN      X      Y      Z        X      Y      Z        X      Y      Z
   1   6    -0.02   0.08   0.28     0.05   0.08   0.01    -0.20   0.30  -0.10
   2   1     0.18   0.08  -0.44     0.08   0.05  -0.15     0.12   0.14   0.32
   3   1    -0.21  -0.57  -0.44     0.10   0.15  -0.10     0.11  -0.14  -0.04
   4   1     0.02   0.11  -0.31     0.03   0.07  -0.14    -0.05  -0.24  -0.10
   5   8     0.01   0.00   0.07    -0.03  -0.03  -0.09     0.23  -0.16   0.18
   6   1    -0.01  -0.00  -0.02     0.03   0.01  -0.03    -0.37  -0.16  -0.59
   7   1     0.05   0.10  -0.02    -0.32  -0.45   0.75    -0.03  -0.00   0.04
                     10                     11                     12
                        a                      a                      a 
 Frequencies --  1040.1664              1432.9118              1941.3047
 Red. masses --    99.0000                99.0000                99.0000
 Frc consts  --    99.0000                99.0000                99.0000
 IR Inten    --    99.0000                99.0000                99.0000
 Raman Activ --     0.0000                 0.0000                 0.0000
 Depolar     --     0.0000                 0.0000                 0.0000
 Atom AN      X      Y      Z        X      Y      Z        X      Y      Z
   1   6    -0.09   0.23   0.05    -0.17  -0.22  -0.08    -0.10  -0.11   0.19
   2   1     0.26   0.16   0.53     0.61   0.22   0.15    -0.07  -0.03   0.07
   3   1     0.08  -0.21  -0.08     0.09   0.04  -0.00     0.35   0.43  -0.77
   4   1    -0.02  -0.27  -0.19    -0.01   0.64   0.20    -0.01  -0.09   0.08
   5   8    -0.08  -0.15  -0.23    -0.02  -0.03   0.00     0.00   0.00   0.03
   6   1     0.31   0.06   0.47    -0.03  -0.02  -0.04     0.01   0.01  -0.01
   7   1    -0.02   0.03   0.04     0.00   0.01  -0.04     0.04   0.07  -0.11
                     13                     14                     15
                        a                      a                      a 
 Frequencies --  2938.7799              3030.4629              3542.1179
 Red. masses --    99.0000                99.0000                99.0000
 Frc consts  --    99.0000                99.0000                99.0000
 IR Inten    --    99.0000                99.0000                99.0000
 Raman Activ --     0.0000                 0.0000                 0.0000
 Depolar     --     0.0000                 0.0000                 0.0000
 Atom AN      X      Y      Z        X      Y      Z        X      Y      Z
   1   6    -0.25   0.00  -0.00    -0.10   0.24  -0.00     0.00  -0.01  -0.00
   2   1    -0.05   0.04   0.00     0.34  -0.90   0.01    -0.01   0.01  -0.00
   3   1    -0.04  -0.00   0.01    -0.01   0.03  -0.01    -0.00  -0.00   0.00
   4   1     0.97  -0.02   0.04     0.03   0.03  -0.00    -0.00   0.00   0.00
   5   8    -0.01  -0.01  -0.01     0.00   0.00   0.00     0.10  -0.22  -0.02
   6   1     0.00   0.00  -0.00    -0.01   0.01  -0.00    -0.39   0.88   0.08
   7   1     0.00  -0.00   0.00     0.00  -0.00   0.00    -0.00   0.00   0.00
