 Entering Gaussian System
 *********************************************
 Gaussian 98:
 frequency output generated by the xtb code
 *********************************************
                         Standard orientation:
 --------------------------------------------------------------------
  Center     Atomic     Atomic              Coordinates (Angstroms)
  Number     Number      Type              X           Y           Z
 --------------------------------------------------------------------
    1          6             0       -2.723562   -0.289715   -0.069600
    2          1             0       -2.333034   -1.304740   -0.039969
    3          1             0       -2.333820    0.202069   -0.957998
    4          1             0       -3.807013   -0.343601   -0.154137
    5          6             0       -2.323492    0.473208    1.187372
    6          1             0       -2.707736    1.494367    1.129644
    7          6             0       -2.856894   -0.195102    2.452391
    8          1             0       -3.946717   -0.252653    2.396661
    9          1             0       -2.475855   -1.217978    2.506386
   10          6             0       -2.456319    0.561421    3.716652
   11          1             0       -1.366369    0.609933    3.777617
   12          1             0       -2.831357    1.584255    3.650636
   13          1             0       -1.233997    0.533579    1.243782
   14          6             0       -3.001468   -0.109058    4.976073
   15          1             0       -2.686561   -1.155880    4.977797
   16          1             0       -4.093752   -0.095261    4.948479
   17          6             0       -2.520869    0.545355    6.271573
   18          1             0       -2.836097   -0.076548    7.113608
   19          1             0       -1.428521    0.575373    6.276515
   20          6             0       -3.063737    1.957533    6.480850
   21          1             0       -2.690544    2.616516    5.695180
   22          1             0       -4.154020    1.938009    6.410736
   23          6             0       -2.654212    2.519126    7.837133
   24          1             0       -1.570011    2.551144    7.924867
   25          1             0       -3.038694    3.528358    7.966863
   26          1             0       -3.043319    1.897918    8.641629
 --------------------------------------------------------------------
     1 basis functions        1 primitive gaussians
     1 alpha electrons        1 beta electrons
 
 Harmonic frequencies (cm**-1), IR intensities (KM/Mole),
 Raman scattering activities (A**4/amu), Raman depolarization ratios,
 reduced masses (AMU), force constants (mDyne/A) and normal coordinates:
                      1                      2                      3
                        a                      a                      a 
 Frequencies --    44.5991                64.5516                70.4763
 Red. masses --     7.2730                 5.9291                 8.3736
 Frc consts  --     0.0000                 0.0000                 0.0000
 IR Inten    --     0.0536                 0.0322                 0.0213
 Raman Activ --     0.0000                 0.0000                 0.0000
 Depolar     --     0.0000                 0.0000                 0.0000
 Atom AN      X      Y      Z        X      Y      Z        X      Y      Z
   1   6     0.40  -0.22   0.01    -0.08   0.13   0.03     0.04   0.32   0.01
   2   1     0.28   0.00   0.05     0.08   0.08  -0.04     0.04   0.10  -0.06
   3   1     0.06  -0.02   0.00    -0.11   0.11   0.01    -0.01   0.16   0.03
   4   1     0.13  -0.25  -0.04    -0.02  -0.07   0.05     0.01   0.07   0.01
   5   6    -0.20   0.14  -0.02    -0.18   0.14   0.06    -0.00   0.12   0.14
   6   1    -0.22  -0.02  -0.05    -0.15   0.01   0.06    -0.03   0.03   0.10
   7   6    -0.01  -0.02  -0.02     0.17  -0.15   0.06     0.10  -0.15   0.05
   8   1     0.01  -0.13  -0.02     0.05  -0.15   0.05     0.03  -0.09   0.01
   9   1     0.12   0.04   0.01     0.15  -0.01  -0.02     0.07  -0.03  -0.02
  10   6    -0.36   0.19  -0.03     0.04  -0.10   0.07    -0.01  -0.21   0.11
  11   1    -0.11   0.16   0.01     0.01  -0.00   0.04    -0.00  -0.06   0.05
  12   1    -0.20   0.02  -0.03    -0.01  -0.04   0.01    -0.00  -0.06   0.03
  13   1    -0.07   0.21   0.04    -0.06   0.14  -0.02    -0.00   0.06   0.04
  14   6    -0.19   0.05  -0.03     0.01  -0.11   0.05    -0.08  -0.20   0.08
  15   1    -0.04   0.02  -0.04     0.00  -0.03   0.02    -0.02  -0.06   0.04
  16   1    -0.05  -0.00   0.03     0.00  -0.03  -0.00    -0.02  -0.06   0.01
  17   6    -0.06  -0.04  -0.03    -0.08  -0.08   0.07    -0.15  -0.11   0.07
  18   1    -0.02  -0.01  -0.01    -0.14   0.04   0.02    -0.04  -0.01   0.03
  19   1    -0.02  -0.04  -0.03    -0.02  -0.13   0.09    -0.04  -0.02   0.02
  20   6     0.08  -0.00   0.07     0.35   0.13  -0.27    -0.20  -0.10  -0.06
  21   1     0.01  -0.00   0.01     0.30  -0.01  -0.02    -0.16  -0.07  -0.10
  22   1     0.02   0.03   0.05     0.11   0.16  -0.26    -0.07  -0.06   0.10
  23   6     0.28  -0.08   0.04    -0.21   0.02  -0.06     0.28   0.28  -0.37
  24   1     0.09  -0.05  -0.02    -0.07  -0.14   0.17     0.09   0.13  -0.24
  25   1     0.11  -0.01   0.03     0.05   0.06  -0.10     0.05   0.07  -0.13
  26   1     0.09  -0.02   0.02    -0.28   0.07  -0.07     0.21   0.12  -0.02
                      4                      5                      6
                        a                      a                      a 
 Frequencies --   108.0770               122.0837               161.0585
 Red. masses --     7.9422                 6.7040                 8.3608
 Frc consts  --     0.0000                 0.0000                 0.0000
 IR Inten    --     0.0219                 0.0180                 0.0317
 Raman Activ --     0.0000                 0.0000                 0.0000
 Depolar     --     0.0000                 0.0000                 0.0000
 Atom AN      X      Y      Z        X      Y      Z        X      Y      Z
   1   6    -0.22  -0.12  -0.01    -0.22   0.13  -0.02    -0.13  -0.24   0.22
   2   1     0.04   0.00  -0.04    -0.21  -0.02  -0.05    -0.09  -0.08   0.16
   3   1    -0.20  -0.00  -0.04    -0.02   0.01  -0.00    -0.04  -0.18   0.00
   4   1    -0.07  -0.14   0.10    -0.07   0.20   0.03    -0.04  -0.03   0.09
   5   6    -0.06   0.03  -0.14     0.28  -0.19   0.01     0.06   0.12  -0.06
   6   1    -0.10  -0.02  -0.02     0.17  -0.02   0.06     0.04   0.04  -0.08
   7   6     0.41  -0.09  -0.01     0.31  -0.20   0.02     0.07   0.38   0.06
   8   1     0.12  -0.12   0.05     0.10  -0.21  -0.06     0.02   0.13   0.02
   9   1     0.21   0.00  -0.02     0.22  -0.00   0.09    -0.01   0.10   0.03
  10   6     0.35  -0.00  -0.04    -0.36   0.24  -0.03     0.07   0.31   0.09
  11   1     0.10  -0.07   0.06    -0.12   0.29   0.03     0.02   0.13   0.02
  12   1     0.17   0.02  -0.07    -0.30  -0.01  -0.06    -0.03   0.07   0.07
  13   1    -0.02   0.09  -0.13     0.09  -0.15  -0.05     0.02   0.01  -0.05
  14   6    -0.14   0.22  -0.13    -0.05   0.02  -0.01     0.16  -0.10  -0.09
  15   1    -0.14   0.03  -0.01     0.06   0.03  -0.03     0.13  -0.00  -0.08
  16   1    -0.04   0.17  -0.11    -0.02  -0.07   0.03     0.04  -0.11  -0.06
  17   6    -0.24   0.04   0.00    -0.03   0.02  -0.02    -0.20  -0.27   0.12
  18   1    -0.10  -0.02  -0.03    -0.01   0.00  -0.01    -0.18  -0.07  -0.01
  19   1    -0.07  -0.01   0.03    -0.01  -0.00  -0.01    -0.06  -0.13   0.15
  20   6    -0.17   0.04   0.17     0.02   0.03   0.01    -0.04  -0.18  -0.10
  21   1    -0.08   0.02   0.04     0.02   0.01   0.01     0.02  -0.10  -0.06
  22   1    -0.05   0.02   0.11     0.01   0.02   0.00    -0.01  -0.02  -0.03
  23   6     0.10  -0.08   0.14     0.05  -0.05   0.04     0.05   0.03  -0.22
  24   1     0.04  -0.02  -0.02     0.01  -0.04   0.01     0.02  -0.04  -0.07
  25   1     0.03  -0.03   0.09     0.04  -0.01   0.02     0.07   0.04  -0.13
  26   1     0.08  -0.05   0.05    -0.00  -0.01   0.00    -0.02   0.08  -0.02
                      7                      8                      9
                        a                      a                      a 
 Frequencies --   231.2741               234.2701               260.9192
 Red. masses --     2.9496                 2.1300                 6.5048
 Frc consts  --     0.0000                 0.0000                 0.0000
 IR Inten    --     0.0306                 0.0041                 0.0331
 Raman Activ --     0.0000                 0.0000                 0.0000
 Depolar     --     0.0000                 0.0000                 0.0000
 Atom AN      X      Y      Z        X      Y      Z        X      Y      Z
   1   6    -0.04  -0.02   0.13     0.04  -0.02  -0.01     0.05   0.03  -0.24
   2   1     0.05   0.02   0.01    -0.37  -0.15   0.28     0.04   0.02  -0.12
   3   1    -0.10   0.02   0.01     0.46  -0.29   0.03     0.01   0.07  -0.04
   4   1    -0.01  -0.07   0.11     0.02   0.38  -0.32     0.02  -0.02  -0.09
   5   6     0.07   0.03   0.06    -0.23   0.14  -0.02    -0.06  -0.12  -0.10
   6   1     0.03   0.01   0.01    -0.16   0.00  -0.01     0.00  -0.03  -0.03
   7   6     0.03   0.06   0.04     0.10  -0.08   0.01    -0.11  -0.05  -0.06
   8   1     0.01   0.02  -0.00     0.03  -0.12   0.04    -0.03   0.02  -0.01
   9   1     0.00   0.02   0.02     0.12   0.01  -0.03    -0.06  -0.03  -0.01
  10   6    -0.04   0.04   0.05     0.08  -0.06   0.00     0.02  -0.03  -0.07
  11   1    -0.01  -0.00   0.04     0.02  -0.03   0.01     0.01   0.04  -0.08
  12   1     0.00   0.02   0.01     0.03  -0.01  -0.01    -0.05  -0.02   0.01
  13   1     0.02  -0.01   0.01    -0.07   0.14  -0.01    -0.02  -0.05  -0.01
  14   6    -0.17   0.04  -0.02    -0.01   0.01  -0.00     0.32  -0.14   0.02
  15   1    -0.12  -0.01  -0.03    -0.03  -0.00   0.01     0.27   0.01   0.06
  16   1    -0.05   0.09   0.01    -0.00   0.03  -0.01     0.09  -0.23  -0.05
  17   6     0.05  -0.11  -0.04    -0.02  -0.00   0.01    -0.35   0.07   0.20
  18   1    -0.02  -0.01  -0.01    -0.03   0.01  -0.00    -0.28   0.05   0.01
  19   1     0.01  -0.09  -0.02    -0.01  -0.02   0.02    -0.10  -0.05   0.24
  20   6     0.23  -0.02  -0.16     0.03   0.02  -0.01    -0.01   0.24   0.07
  21   1     0.13  -0.02  -0.02     0.02   0.01   0.00     0.08   0.05   0.04
  22   1     0.07   0.01  -0.12     0.01   0.02  -0.01    -0.00   0.16  -0.01
  23   6    -0.09  -0.02  -0.07    -0.01  -0.00   0.01     0.11   0.00   0.16
  24   1    -0.03   0.47  -0.13    -0.00   0.09  -0.02     0.03   0.14  -0.04
  25   1    -0.47  -0.20   0.15    -0.09  -0.04   0.05    -0.09  -0.06   0.18
  26   1     0.33  -0.29  -0.06     0.07  -0.06  -0.01     0.18  -0.13   0.02
                     10                     11                     12
                        a                      a                      a 
 Frequencies --   279.7420               347.7452               423.0851
 Red. masses --     8.6389                 8.9360                 9.1292
 Frc consts  --     0.0000                 0.0000                 0.0000
 IR Inten    --     0.0419                 0.0097                 0.0339
 Raman Activ --     0.0000                 0.0000                 0.0000
 Depolar     --     0.0000                 0.0000                 0.0000
 Atom AN      X      Y      Z        X      Y      Z        X      Y      Z
   1   6    -0.02   0.00   0.29    -0.08  -0.13   0.03    -0.00   0.05   0.42
   2   1    -0.01  -0.00   0.11    -0.03  -0.04   0.10    -0.01   0.01   0.18
   3   1    -0.02  -0.03   0.06    -0.09  -0.15  -0.08    -0.05  -0.06   0.06
   4   1    -0.01   0.00   0.11    -0.03  -0.04   0.10    -0.01   0.01   0.18
   5   6     0.03   0.09   0.19     0.20   0.28  -0.28     0.08   0.15   0.22
   6   1     0.01   0.02   0.06     0.05   0.07  -0.12     0.02   0.04   0.10
   7   6    -0.01   0.01   0.10     0.14   0.17  -0.30    -0.12  -0.21  -0.17
   8   1    -0.00   0.02   0.03     0.04   0.05  -0.15    -0.03  -0.05  -0.08
   9   1    -0.01  -0.00   0.01     0.03   0.04  -0.16    -0.03  -0.06  -0.08
  10   6     0.03  -0.05   0.06    -0.17  -0.32   0.11    -0.03  -0.11  -0.36
  11   1     0.01  -0.02   0.01    -0.05  -0.08   0.07    -0.01  -0.02  -0.15
  12   1     0.01  -0.01   0.04    -0.05  -0.08   0.09    -0.02  -0.04  -0.13
  13   1     0.01   0.02   0.06     0.06   0.08  -0.12     0.02   0.04   0.10
  14   6     0.05  -0.11  -0.03    -0.14  -0.32   0.19     0.11   0.00  -0.32
  15   1     0.10  -0.01   0.04     0.01  -0.08   0.12     0.08   0.02  -0.07
  16   1     0.02  -0.11  -0.03    -0.04  -0.13   0.08     0.03  -0.06  -0.11
  17   6    -0.09   0.29  -0.25     0.01   0.09   0.00    -0.09  -0.06  -0.16
  18   1     0.03   0.12  -0.02     0.08   0.06   0.05    -0.08  -0.06  -0.10
  19   1    -0.03   0.14  -0.09     0.00   0.05  -0.08    -0.02  -0.05   0.00
  20   6    -0.18   0.24  -0.29     0.04   0.13   0.09     0.07  -0.01   0.17
  21   1    -0.05   0.12  -0.04     0.01   0.05   0.04     0.02   0.00   0.05
  22   1    -0.05   0.09  -0.06     0.01   0.05   0.03     0.02   0.02   0.05
  23   6     0.12  -0.41  -0.13     0.01   0.11   0.14    -0.00   0.19   0.17
  24   1     0.04  -0.20  -0.10     0.00   0.04   0.05    -0.00   0.09   0.08
  25   1     0.10  -0.12   0.15    -0.01   0.03   0.04    -0.03   0.05  -0.03
  26   1     0.05  -0.22  -0.11     0.00   0.03   0.04    -0.01   0.10   0.08
                     13                     14                     15
                        a                      a                      a 
 Frequencies --   521.5083               767.4475               779.4507
 Red. masses --     8.4785                 1.9664                 2.1539
 Frc consts  --     0.0000                 0.0000                 0.0000
 IR Inten    --     0.0203                 0.0491                 0.0342
 Raman Activ --     0.0000                 0.0000                 0.0000
 Depolar     --     0.0000                 0.0000                 0.0000
 Atom AN      X      Y      Z        X      Y      Z        X      Y      Z
   1   6     0.01  -0.00  -0.10    -0.00   0.01   0.00    -0.02   0.00  -0.01
   2   1     0.01   0.00  -0.09     0.05   0.02   0.05     0.09   0.04   0.08
   3   1     0.04   0.07   0.03     0.01  -0.02  -0.01     0.04  -0.02   0.01
   4   1     0.01   0.00  -0.09     0.01  -0.06  -0.03     0.01  -0.11  -0.10
   5   6    -0.10  -0.14   0.06    -0.05   0.05  -0.01    -0.11   0.06  -0.00
   6   1    -0.03  -0.04   0.00     0.19   0.09  -0.03     0.27   0.12  -0.02
   7   6     0.08   0.14   0.24    -0.11   0.04  -0.03    -0.08   0.10   0.02
   8   1     0.02   0.05   0.12    -0.01  -0.35  -0.03    -0.01  -0.25   0.06
   9   1     0.01   0.03   0.11     0.30   0.13   0.03     0.24   0.12  -0.02
  10   6     0.11   0.10   0.18    -0.10   0.10  -0.03    -0.04  -0.04   0.05
  11   1     0.03   0.02   0.11    -0.00  -0.37  -0.01    -0.01  -0.06  -0.03
  12   1     0.03   0.03   0.12     0.35   0.16  -0.01     0.03   0.01   0.10
  13   1    -0.03  -0.03   0.00    -0.00  -0.21   0.05    -0.01  -0.29   0.03
  14   6    -0.15  -0.35  -0.26    -0.07   0.11   0.04     0.04  -0.08  -0.04
  15   1     0.09  -0.06  -0.06     0.24   0.11  -0.05    -0.08  -0.05   0.00
  16   1    -0.04  -0.22  -0.14    -0.02  -0.24   0.05     0.01   0.08   0.03
  17   6    -0.12  -0.04  -0.42    -0.06  -0.01   0.09     0.10   0.04  -0.13
  18   1     0.11  -0.02  -0.07     0.16  -0.07   0.04    -0.28   0.11  -0.07
  19   1    -0.03   0.02  -0.27    -0.02   0.12  -0.12     0.03  -0.22   0.19
  20   6     0.09   0.06   0.11    -0.04  -0.08   0.04     0.12   0.09  -0.08
  21   1     0.03   0.06   0.07     0.19  -0.09   0.05    -0.33   0.14  -0.09
  22   1     0.02   0.06   0.05     0.00   0.11  -0.15     0.01  -0.24   0.26
  23   6     0.01   0.18   0.18    -0.01  -0.03  -0.04     0.02   0.02   0.02
  24   1    -0.00   0.10   0.09     0.00  -0.01  -0.09    -0.01   0.02   0.18
  25   1    -0.04   0.05  -0.03     0.01   0.00  -0.03    -0.04  -0.02   0.03
  26   1    -0.01   0.09   0.08     0.05   0.03   0.04    -0.11  -0.06  -0.10
                     16                     17                     18
                        a                      a                      a 
 Frequencies --   796.4673               856.1693               889.1283
 Red. masses --     2.3731                 3.4809                 4.2918
 Frc consts  --     0.0000                 0.0000                 0.0000
 IR Inten    --     0.0217                 0.0298                 0.0366
 Raman Activ --     0.0000                 0.0000                 0.0000
 Depolar     --     0.0000                 0.0000                 0.0000
 Atom AN      X      Y      Z        X      Y      Z        X      Y      Z
   1   6     0.03  -0.02  -0.01    -0.07   0.06  -0.02     0.05  -0.01   0.04
   2   1    -0.12  -0.06  -0.14     0.15   0.08   0.22    -0.05  -0.03  -0.07
   3   1    -0.06   0.04  -0.01     0.08  -0.08  -0.01    -0.03   0.03   0.01
   4   1    -0.01   0.14   0.13     0.01  -0.18  -0.17     0.00   0.08   0.09
   5   6     0.15  -0.09   0.00    -0.11   0.10  -0.03     0.01  -0.04   0.00
   6   1    -0.28  -0.14  -0.03     0.16   0.10   0.14    -0.03  -0.03  -0.06
   7   6     0.03  -0.02   0.01     0.13  -0.15  -0.01    -0.09   0.02  -0.07
   8   1     0.01   0.07  -0.12     0.01   0.22   0.08    -0.02  -0.10  -0.00
   9   1    -0.07  -0.03   0.11    -0.20  -0.13  -0.11     0.08   0.04   0.00
  10   6    -0.15   0.07   0.02     0.10  -0.02  -0.00     0.11   0.12  -0.13
  11   1    -0.03  -0.28   0.09     0.01   0.13   0.13     0.03   0.04  -0.13
  12   1     0.25   0.12  -0.07    -0.08  -0.05  -0.21     0.01   0.03  -0.01
  13   1     0.02   0.31  -0.00    -0.01  -0.19  -0.13    -0.00   0.03   0.08
  14   6    -0.11   0.13   0.03    -0.15   0.19   0.09    -0.03  -0.17  -0.02
  15   1     0.27   0.12  -0.02     0.23   0.13   0.07    -0.09  -0.07  -0.08
  16   1    -0.03  -0.27   0.09    -0.04  -0.23  -0.04    -0.00   0.04  -0.11
  17   6     0.03   0.06  -0.04    -0.15   0.06   0.07    -0.09  -0.20   0.30
  18   1    -0.14   0.06  -0.03     0.11  -0.00   0.06     0.29  -0.06   0.19
  19   1     0.01  -0.15   0.05    -0.04   0.03  -0.16    -0.02   0.14  -0.18
  20   6     0.16  -0.02  -0.04     0.15  -0.09   0.02     0.00   0.17  -0.09
  21   1    -0.22   0.04  -0.09    -0.07  -0.09  -0.10    -0.12  -0.14  -0.23
  22   1     0.03  -0.19   0.20     0.03  -0.04   0.15    -0.02   0.10   0.20
  23   6     0.02  -0.02  -0.05     0.05  -0.05  -0.10     0.09   0.14  -0.02
  24   1    -0.01   0.02   0.15    -0.01   0.05   0.17    -0.00  -0.01   0.27
  25   1    -0.06  -0.03  -0.03    -0.10  -0.05  -0.07    -0.04  -0.02   0.24
  26   1    -0.10  -0.05  -0.09    -0.11  -0.05  -0.11    -0.16  -0.21  -0.28
                     19                     20                     21
                        a                      a                      a 
 Frequencies --   916.2361               943.1284               975.3588
 Red. masses --     5.2057                 5.9413                 2.7569
 Frc consts  --     0.0000                 0.0000                 0.0000
 IR Inten    --     0.0569                 0.0316                 0.0304
 Raman Activ --     0.0000                 0.0000                 0.0000
 Depolar     --     0.0000                 0.0000                 0.0000
 Atom AN      X      Y      Z        X      Y      Z        X      Y      Z
   1   6    -0.08   0.05   0.06     0.07   0.07  -0.36    -0.12   0.07  -0.04
   2   1     0.11   0.06   0.12    -0.04   0.00   0.23     0.12   0.08   0.19
   3   1     0.10   0.02   0.07    -0.20  -0.37  -0.40     0.07  -0.07  -0.01
   4   1     0.00  -0.12  -0.17    -0.01  -0.03   0.21    -0.01  -0.17  -0.18
   5   6    -0.06  -0.05   0.02     0.15   0.22  -0.08     0.09  -0.04   0.01
   6   1     0.00   0.00   0.15     0.03   0.06   0.13    -0.08  -0.03   0.27
   7   6     0.17  -0.03  -0.04    -0.19  -0.29   0.23     0.06  -0.02   0.05
   8   1     0.04   0.17  -0.07    -0.05  -0.06   0.11     0.03   0.05  -0.28
   9   1    -0.13  -0.07   0.04    -0.06  -0.08   0.12    -0.06  -0.02   0.29
  10   6    -0.08   0.09  -0.08     0.04   0.10   0.14    -0.19   0.06   0.02
  11   1    -0.02  -0.12   0.11     0.01   0.01   0.02    -0.03  -0.18  -0.14
  12   1     0.12   0.07  -0.11     0.02   0.03   0.01     0.12   0.08   0.17
  13   1    -0.00  -0.05  -0.17     0.03   0.07   0.11     0.03   0.08  -0.26
  14   6    -0.11  -0.12  -0.12     0.01  -0.00  -0.03     0.20  -0.09  -0.02
  15   1     0.03  -0.02  -0.21     0.00  -0.00  -0.07    -0.16  -0.08  -0.04
  16   1    -0.03  -0.09   0.11     0.00   0.00  -0.02     0.05   0.19   0.06
  17   6     0.26  -0.21   0.12     0.03  -0.09  -0.05    -0.09   0.03  -0.05
  18   1    -0.03  -0.02   0.02    -0.00  -0.02  -0.01     0.02  -0.05  -0.04
  19   1     0.07  -0.13   0.09     0.01  -0.05  -0.02    -0.03   0.20   0.08
  20   6    -0.15   0.21  -0.10    -0.04   0.05  -0.04    -0.04  -0.02   0.02
  21   1    -0.04   0.05  -0.03    -0.02   0.02  -0.01     0.04  -0.04  -0.01
  22   1    -0.03  -0.07  -0.14    -0.01  -0.02  -0.03    -0.02   0.19   0.11
  23   6    -0.08   0.20   0.13    -0.02   0.07   0.05     0.11  -0.08  -0.05
  24   1     0.00  -0.15  -0.17     0.00  -0.03  -0.03     0.00   0.11   0.19
  25   1     0.18   0.09   0.35     0.05   0.03   0.10    -0.12  -0.05  -0.16
  26   1     0.08  -0.08  -0.02     0.02  -0.02  -0.00    -0.08   0.02  -0.04
                     22                     23                     24
                        a                      a                      a 
 Frequencies --  1003.5039              1042.6805              1076.2695
 Red. masses --     6.1233                 2.9960                10.1590
 Frc consts  --     0.0000                 0.0000                 0.0000
 IR Inten    --     0.0574                 0.0662                 0.0579
 Raman Activ --     0.0000                 0.0000                 0.0000
 Depolar     --     0.0000                 0.0000                 0.0000
 Atom AN      X      Y      Z        X      Y      Z        X      Y      Z
   1   6     0.02   0.10   0.06     0.08   0.01   0.00    -0.12  -0.21  -0.27
   2   1     0.03   0.04   0.12    -0.05  -0.02  -0.02    -0.03  -0.06  -0.13
   3   1    -0.00  -0.05  -0.03    -0.05  -0.02  -0.04    -0.01  -0.02  -0.04
   4   1     0.01  -0.02   0.03     0.01   0.07   0.12    -0.03  -0.06  -0.13
   5   6    -0.02  -0.10  -0.04    -0.11   0.00  -0.01     0.11   0.21   0.32
   6   1    -0.05  -0.04   0.10     0.06   0.03  -0.08     0.04   0.06   0.08
   7   6    -0.05  -0.07  -0.15     0.08  -0.05  -0.03     0.10   0.18   0.26
   8   1    -0.01  -0.03  -0.07     0.00   0.08   0.23     0.03   0.06   0.06
   9   1    -0.01  -0.01   0.10    -0.05  -0.05  -0.17     0.03   0.05   0.05
  10   6     0.19   0.29  -0.20    -0.02   0.10  -0.07    -0.11  -0.21  -0.24
  11   1     0.06   0.06  -0.15    -0.02  -0.04   0.28    -0.03  -0.05  -0.09
  12   1     0.06   0.09   0.03     0.07   0.04  -0.23    -0.04  -0.06  -0.08
  13   1    -0.01   0.01  -0.02    -0.03  -0.08   0.15     0.03   0.06   0.09
  14   6    -0.20  -0.29   0.09    -0.05  -0.20  -0.09    -0.08  -0.07  -0.25
  15   1    -0.07  -0.08   0.03    -0.06  -0.07  -0.31    -0.00  -0.01  -0.05
  16   1    -0.05  -0.05  -0.13    -0.02   0.01   0.31    -0.02  -0.05  -0.12
  17   6     0.00   0.12   0.21     0.13   0.01   0.07     0.09   0.10   0.24
  18   1     0.02   0.31   0.27    -0.03   0.03   0.01     0.03   0.02   0.06
  19   1     0.00  -0.12  -0.08     0.03   0.21   0.26     0.02   0.01   0.05
  20   6     0.12   0.04   0.01    -0.13   0.09  -0.03     0.10   0.11   0.26
  21   1    -0.08   0.22   0.13     0.02   0.05   0.04     0.02   0.04   0.07
  22   1     0.03  -0.17  -0.00    -0.04   0.22   0.07     0.03   0.00   0.07
  23   6    -0.07  -0.18  -0.03     0.12  -0.15  -0.00    -0.10  -0.09  -0.24
  24   1    -0.01   0.03  -0.13     0.01   0.14   0.16    -0.02  -0.05  -0.11
  25   1    -0.02  -0.02  -0.22    -0.13  -0.06  -0.25    -0.00  -0.02  -0.05
  26   1     0.07   0.14   0.17    -0.05   0.09   0.06    -0.01  -0.04  -0.07
                     25                     26                     27
                        a                      a                      a 
 Frequencies --  1087.7976              1099.7366              1117.8448
 Red. masses --     8.7744                 7.5099                 7.1960
 Frc consts  --     0.0000                 0.0000                 0.0000
 IR Inten    --     0.0467                 0.0556                 0.0820
 Raman Activ --     0.0000                 0.0000                 0.0000
 Depolar     --     0.0000                 0.0000                 0.0000
 Atom AN      X      Y      Z        X      Y      Z        X      Y      Z
   1   6     0.11   0.19   0.15     0.13   0.21   0.05    -0.02  -0.05  -0.21
   2   1     0.01   0.05   0.14     0.01   0.05   0.18    -0.03  -0.02   0.05
   3   1    -0.02  -0.04  -0.03    -0.05  -0.10  -0.10    -0.07  -0.12  -0.14
   4   1     0.02   0.04   0.14     0.02   0.03   0.17    -0.01  -0.05   0.04
   5   6    -0.11  -0.20  -0.21    -0.11  -0.20  -0.17    -0.12  -0.15   0.40
   6   1    -0.04  -0.05  -0.02    -0.03  -0.05  -0.03    -0.05  -0.03   0.33
   7   6    -0.02  -0.04  -0.13     0.13   0.25   0.24     0.11   0.14  -0.43
   8   1    -0.01  -0.02   0.01     0.03   0.06   0.23     0.03   0.03  -0.15
   9   1    -0.01  -0.01   0.02     0.03   0.08   0.26     0.04   0.04  -0.12
  10   6     0.01   0.01   0.16    -0.05  -0.15  -0.41     0.10   0.12   0.02
  11   1    -0.00   0.02   0.13    -0.01  -0.03  -0.11     0.02   0.05   0.13
  12   1    -0.02   0.00   0.17    -0.02  -0.04  -0.09     0.01   0.04   0.15
  13   1    -0.03  -0.05  -0.03    -0.03  -0.04  -0.04    -0.04  -0.03   0.32
  14   6    -0.02  -0.01  -0.15    -0.11  -0.10   0.04    -0.07  -0.05   0.03
  15   1     0.01   0.00  -0.01    -0.02  -0.02   0.22    -0.01  -0.01   0.12
  16   1    -0.00  -0.01  -0.03    -0.03  -0.05   0.11    -0.02  -0.02   0.06
  17   6     0.09   0.03   0.03     0.00   0.18  -0.01     0.01   0.16  -0.05
  18   1    -0.01  -0.14  -0.12    -0.06   0.00  -0.06    -0.06  -0.02  -0.08
  19   1     0.03  -0.02   0.06    -0.00   0.07   0.10    -0.00   0.07   0.10
  20   6     0.11   0.16   0.47     0.00  -0.20  -0.03     0.00  -0.18   0.01
  21   1     0.06   0.03   0.13     0.06  -0.18  -0.09     0.06  -0.13  -0.04
  22   1     0.03   0.10   0.13     0.01  -0.05  -0.08     0.01  -0.03  -0.06
  23   6    -0.15  -0.03  -0.41     0.03   0.09   0.07     0.03   0.09   0.02
  24   1    -0.03  -0.11  -0.14     0.01  -0.02   0.04     0.01  -0.03   0.04
  25   1     0.01  -0.01   0.04     0.02   0.02   0.11     0.02   0.01   0.10
  26   1    -0.05  -0.13  -0.21    -0.00  -0.04  -0.04    -0.02  -0.06  -0.07
                     28                     29                     30
                        a                      a                      a 
 Frequencies --  1130.4312              1148.5782              1181.5022
 Red. masses --     7.9952                 8.0336                 6.9343
 Frc consts  --     0.0000                 0.0000                 0.0000
 IR Inten    --     0.0449                 0.0200                 0.0154
 Raman Activ --     0.0000                 0.0000                 0.0000
 Depolar     --     0.0000                 0.0000                 0.0000
 Atom AN      X      Y      Z        X      Y      Z        X      Y      Z
   1   6    -0.03  -0.07  -0.05    -0.08  -0.13   0.07    -0.09   0.00   0.01
   2   1    -0.01  -0.02  -0.05     0.01  -0.02  -0.14     0.05   0.03   0.03
   3   1     0.00   0.01   0.01     0.06   0.12   0.13     0.05   0.01   0.04
   4   1    -0.01  -0.01  -0.04    -0.01   0.00  -0.14    -0.01  -0.06  -0.10
   5   6     0.02   0.07   0.10     0.15   0.25  -0.09     0.17  -0.00  -0.01
   6   1     0.02   0.02   0.03     0.05   0.06  -0.11    -0.06  -0.04   0.02
   7   6     0.04   0.02   0.01    -0.17  -0.28   0.06    -0.20   0.02  -0.01
   8   1     0.01   0.04   0.05    -0.04  -0.05   0.02    -0.04  -0.13  -0.03
   9   1    -0.00   0.00   0.00    -0.05  -0.07   0.00     0.08   0.06   0.11
  10   6     0.10   0.15  -0.26     0.13   0.27  -0.00     0.26  -0.04  -0.04
  11   1     0.03   0.02  -0.15     0.03   0.02   0.03     0.06   0.16  -0.06
  12   1     0.06   0.05  -0.16     0.06   0.07  -0.05    -0.11  -0.07   0.11
  13   1     0.01   0.01   0.04     0.04   0.05  -0.09     0.04   0.10  -0.05
  14   6     0.04  -0.07   0.48    -0.11  -0.26  -0.00    -0.33   0.06  -0.02
  15   1    -0.03  -0.03   0.15    -0.08  -0.08   0.04     0.12   0.07   0.17
  16   1     0.00   0.03   0.36    -0.03   0.00   0.09    -0.08  -0.21  -0.04
  17   6    -0.08  -0.27  -0.32    -0.00   0.33  -0.08     0.35  -0.07   0.04
  18   1    -0.03  -0.10  -0.10    -0.11   0.07  -0.06    -0.08  -0.12  -0.13
  19   1    -0.02  -0.18  -0.13    -0.01   0.15   0.19     0.09  -0.13   0.15
  20   6    -0.01   0.16   0.18     0.08  -0.28   0.15    -0.32   0.10  -0.02
  21   1    -0.01   0.10   0.09     0.11  -0.20  -0.03     0.08  -0.01   0.04
  22   1    -0.01   0.16   0.11     0.03  -0.06  -0.06    -0.08   0.18  -0.08
  23   6    -0.08   0.00  -0.15    -0.02   0.13  -0.06     0.18  -0.05  -0.01
  24   1    -0.02  -0.04  -0.07    -0.00  -0.08  -0.00     0.02   0.11   0.20
  25   1     0.00   0.00   0.01     0.04   0.02   0.17    -0.10  -0.05  -0.10
  26   1    -0.02  -0.04  -0.07    -0.02  -0.11  -0.13    -0.09   0.02  -0.04
                     31                     32                     33
                        a                      a                      a 
 Frequencies --  1215.6645              1241.7552              1258.7850
 Red. masses --     5.3459                 4.1011                 3.4726
 Frc consts  --     0.0000                 0.0000                 0.0000
 IR Inten    --     0.0390                 0.0342                 0.0225
 Raman Activ --     0.0000                 0.0000                 0.0000
 Depolar     --     0.0000                 0.0000                 0.0000
 Atom AN      X      Y      Z        X      Y      Z        X      Y      Z
   1   6     0.23  -0.16   0.02    -0.06   0.11  -0.03    -0.17  -0.01   0.03
   2   1    -0.14  -0.11  -0.20     0.04   0.05   0.11     0.08   0.04   0.03
   3   1    -0.10   0.07  -0.00     0.02  -0.07  -0.04     0.08   0.04   0.08
   4   1     0.03   0.19   0.19    -0.01  -0.08  -0.03    -0.02  -0.07  -0.14
   5   6    -0.32   0.22  -0.03     0.05  -0.14   0.06     0.14   0.06  -0.11
   6   1     0.17   0.15   0.10    -0.05  -0.07  -0.17    -0.02  -0.01  -0.08
   7   6     0.23  -0.16   0.02     0.04   0.06   0.08     0.06  -0.12  -0.15
   8   1     0.05   0.16  -0.11     0.01   0.01  -0.01    -0.01   0.06   0.39
   9   1    -0.14  -0.10   0.12     0.02   0.00  -0.26    -0.06  -0.04   0.18
  10   6    -0.12   0.09  -0.02    -0.10  -0.00   0.08    -0.16   0.06  -0.19
  11   1    -0.01  -0.09  -0.18    -0.02  -0.05  -0.10    -0.05  -0.09   0.32
  12   1     0.06   0.07   0.20     0.04   0.01  -0.21     0.06   0.07   0.26
  13   1    -0.06  -0.22  -0.09     0.01   0.05   0.05     0.01   0.07   0.36
  14   6    -0.03  -0.00   0.00     0.10  -0.02   0.09     0.14   0.02  -0.08
  15   1    -0.00   0.00   0.18    -0.03  -0.02  -0.18    -0.05  -0.02   0.30
  16   1    -0.00  -0.01  -0.19     0.03   0.06  -0.15     0.03   0.06  -0.04
  17   6     0.12  -0.01   0.02     0.02   0.06  -0.07    -0.07  -0.06   0.09
  18   1    -0.03  -0.00  -0.01    -0.06   0.28   0.16     0.07  -0.07   0.01
  19   1     0.03  -0.14  -0.02     0.01  -0.23  -0.13    -0.01  -0.05  -0.10
  20   6    -0.18  -0.01   0.02    -0.23  -0.15   0.18    -0.05   0.03  -0.03
  21   1     0.06   0.03   0.08     0.14   0.08   0.23    -0.01   0.15   0.11
  22   1    -0.04   0.02  -0.11    -0.04  -0.06  -0.26    -0.00  -0.14  -0.13
  23   6     0.13   0.02  -0.03     0.20   0.12  -0.13     0.09   0.01  -0.02
  24   1     0.02   0.04   0.14     0.03   0.02   0.22     0.01   0.03   0.08
  25   1    -0.06  -0.03  -0.01    -0.09  -0.04   0.07    -0.03  -0.01  -0.01
  26   1    -0.07  -0.02  -0.07    -0.13  -0.10  -0.21    -0.04  -0.01  -0.04
                     34                     35                     36
                        a                      a                      a 
 Frequencies --  1267.6698              1285.6116              1287.6991
 Red. masses --     2.9725                 2.1173                 2.1987
 Frc consts  --     0.0000                 0.0000                 0.0000
 IR Inten    --     0.0191                 0.0152                 0.0157
 Raman Activ --     0.0000                 0.0000                 0.0000
 Depolar     --     0.0000                 0.0000                 0.0000
 Atom AN      X      Y      Z        X      Y      Z        X      Y      Z
   1   6     0.09  -0.11   0.03     0.03  -0.05   0.01     0.03  -0.07   0.02
   2   1    -0.05  -0.05  -0.10    -0.02  -0.02  -0.04    -0.01  -0.03  -0.05
   3   1    -0.02   0.05   0.03    -0.02   0.04   0.02     0.01   0.03   0.03
   4   1     0.01   0.08   0.06     0.00   0.04   0.01     0.01   0.04   0.02
   5   6     0.03   0.04  -0.06    -0.09   0.09  -0.06     0.10  -0.03  -0.06
   6   1    -0.02   0.02   0.40     0.04   0.05   0.04    -0.06  -0.01   0.37
   7   6    -0.12   0.07  -0.07    -0.11   0.08  -0.06    -0.08   0.05  -0.09
   8   1    -0.04  -0.07   0.19    -0.01  -0.08  -0.33    -0.04  -0.04   0.40
   9   1     0.06   0.05   0.09     0.03   0.07   0.51     0.04   0.03  -0.18
  10   6     0.11  -0.16  -0.09     0.09  -0.12  -0.02    -0.13   0.04   0.00
  11   1     0.02   0.09   0.05    -0.01   0.09   0.49    -0.03  -0.07   0.09
  12   1    -0.10  -0.07   0.23    -0.03  -0.07  -0.37     0.05   0.04   0.01
  13   1     0.02  -0.00  -0.26    -0.02  -0.05   0.08     0.03   0.04  -0.21
  14   6    -0.00   0.13  -0.04     0.14  -0.02   0.00     0.10  -0.02  -0.02
  15   1     0.05   0.05  -0.29    -0.03  -0.03   0.01    -0.02  -0.02   0.05
  16   1    -0.01  -0.03   0.35     0.04   0.07  -0.05     0.03   0.06  -0.12
  17   6    -0.15  -0.06  -0.00     0.00   0.00  -0.05     0.12   0.10  -0.03
  18   1     0.03   0.14   0.14    -0.00   0.17   0.11    -0.06   0.20   0.09
  19   1    -0.04   0.09  -0.04     0.01  -0.15  -0.09     0.04  -0.33  -0.15
  20   6     0.01  -0.12   0.02    -0.06  -0.00   0.08    -0.09   0.00   0.04
  21   1     0.00   0.23   0.22     0.04  -0.09  -0.03     0.06  -0.33  -0.22
  22   1     0.01  -0.14  -0.13    -0.01   0.05  -0.02    -0.04   0.26   0.16
  23   6     0.07   0.09  -0.07     0.01  -0.00  -0.02    -0.06  -0.05   0.05
  24   1     0.01  -0.02   0.09     0.00  -0.00   0.01    -0.01  -0.01  -0.07
  25   1    -0.01  -0.00   0.07    -0.02  -0.01  -0.00     0.00  -0.00  -0.03
  26   1    -0.04  -0.06  -0.10    -0.01  -0.01  -0.01     0.03   0.03   0.07
                     37                     38                     39
                        a                      a                      a 
 Frequencies --  1292.3633              1312.3297              1324.8567
 Red. masses --     2.4434                 3.3288                 3.7214
 Frc consts  --     0.0000                 0.0000                 0.0000
 IR Inten    --     0.0320                 0.0538                 0.0300
 Raman Activ --     0.0000                 0.0000                 0.0000
 Depolar     --     0.0000                 0.0000                 0.0000
 Atom AN      X      Y      Z        X      Y      Z        X      Y      Z
   1   6     0.09  -0.02  -0.01     0.03   0.01  -0.01    -0.06  -0.09   0.04
   2   1    -0.04  -0.03  -0.04    -0.01  -0.01  -0.00     0.05   0.01  -0.01
   3   1    -0.03  -0.01  -0.03    -0.01  -0.02  -0.03     0.06   0.10   0.11
   4   1     0.01   0.04   0.06     0.01  -0.00   0.01    -0.01   0.05  -0.01
   5   6     0.03  -0.05   0.06     0.01  -0.02   0.06     0.04   0.02  -0.29
   6   1    -0.04  -0.01   0.21    -0.01  -0.01  -0.00    -0.02   0.02   0.35
   7   6    -0.15   0.09   0.04    -0.05   0.02   0.05     0.06   0.08  -0.13
   8   1    -0.03  -0.08   0.03    -0.01  -0.02  -0.00     0.00  -0.00   0.20
   9   1     0.07   0.05  -0.21     0.03   0.01  -0.12    -0.02   0.02   0.18
  10   6    -0.04   0.10   0.00    -0.06   0.04  -0.06    -0.06  -0.05   0.18
  11   1    -0.02  -0.02   0.21    -0.03  -0.03   0.18     0.00   0.00  -0.26
  12   1     0.06   0.03  -0.33     0.03   0.02  -0.07     0.03  -0.01  -0.27
  13   1     0.02   0.01  -0.35     0.01   0.01  -0.15    -0.01   0.02   0.34
  14   6     0.06  -0.13   0.04    -0.02   0.05  -0.02    -0.07  -0.02   0.25
  15   1    -0.09  -0.06   0.24     0.03   0.02   0.34     0.02   0.00  -0.23
  16   1     0.02   0.05  -0.18     0.00  -0.00  -0.24    -0.01  -0.02  -0.37
  17   6    -0.06   0.01   0.08     0.09  -0.24  -0.09     0.05  -0.02  -0.08
  18   1     0.06  -0.35  -0.21    -0.00   0.21   0.17    -0.04  -0.08  -0.10
  19   1    -0.02   0.09   0.03     0.01   0.25   0.22     0.00   0.19   0.16
  20   6     0.01   0.17   0.02     0.05  -0.26  -0.15     0.04  -0.03  -0.01
  21   1    -0.04   0.12   0.04    -0.02   0.30   0.25    -0.01   0.09   0.06
  22   1     0.03  -0.32  -0.23    -0.01   0.32   0.25     0.01   0.00   0.02
  23   6     0.09  -0.04  -0.01    -0.08   0.10  -0.06    -0.02   0.02  -0.02
  24   1     0.02   0.04   0.05    -0.01  -0.05   0.01    -0.00  -0.01   0.00
  25   1    -0.04  -0.02  -0.08     0.07   0.03   0.16     0.02   0.01   0.03
  26   1    -0.04   0.00  -0.03     0.05  -0.02  -0.01     0.01  -0.01  -0.01
                     40                     41                     42
                        a                      a                      a 
 Frequencies --  1367.7972              1375.0768              1379.6260
 Red. masses --     4.7056                 5.1309                 5.6210
 Frc consts  --     0.0000                 0.0000                 0.0000
 IR Inten    --     0.0730                 0.0089                 0.0110
 Raman Activ --     0.0000                 0.0000                 0.0000
 Depolar     --     0.0000                 0.0000                 0.0000
 Atom AN      X      Y      Z        X      Y      Z        X      Y      Z
   1   6    -0.04  -0.06   0.03     0.00   0.01  -0.01    -0.01  -0.01   0.04
   2   1     0.05   0.01   0.02    -0.01  -0.00   0.00     0.02   0.01  -0.01
   3   1     0.04   0.08   0.08    -0.00  -0.01  -0.01     0.01   0.01   0.02
   4   1    -0.01   0.06   0.02     0.00  -0.01   0.00    -0.00   0.02  -0.02
   5   6     0.00  -0.04  -0.34     0.00   0.00   0.05    -0.00  -0.03  -0.22
   6   1     0.00   0.02   0.32    -0.00  -0.00  -0.04     0.01   0.01   0.17
   7   6     0.01   0.05   0.24     0.02  -0.01  -0.07    -0.02  -0.00   0.36
   8   1     0.02  -0.03  -0.24    -0.00   0.01   0.08     0.01  -0.00  -0.30
   9   1    -0.01  -0.01  -0.25    -0.01  -0.00   0.03     0.02  -0.01  -0.31
  10   6     0.02   0.05   0.15    -0.02   0.00   0.04     0.02   0.00  -0.38
  11   1     0.02  -0.02  -0.15    -0.00  -0.02  -0.06    -0.02  -0.00   0.32
  12   1    -0.01  -0.01  -0.16    -0.00   0.00   0.02    -0.03   0.01   0.34
  13   1    -0.02   0.03   0.31     0.00  -0.00  -0.04    -0.01   0.02   0.17
  14   6     0.01  -0.01  -0.35    -0.03   0.10  -0.02    -0.00   0.03   0.27
  15   1     0.01   0.00   0.36     0.03   0.03   0.15    -0.01   0.00  -0.21
  16   1    -0.01   0.02   0.35    -0.01  -0.03  -0.04     0.01  -0.03  -0.23
  17   6    -0.03  -0.05   0.06     0.01  -0.35  -0.28     0.01  -0.02  -0.09
  18   1     0.03   0.08   0.09     0.02   0.34   0.25    -0.00   0.00  -0.02
  19   1    -0.01  -0.04  -0.05    -0.01   0.30   0.26     0.00   0.04   0.07
  20   6    -0.02   0.01   0.00    -0.00   0.29   0.26     0.01   0.05   0.04
  21   1    -0.01   0.02   0.01    -0.00  -0.26  -0.22     0.01  -0.08  -0.07
  22   1    -0.00  -0.01  -0.02     0.02  -0.25  -0.22     0.00  -0.04  -0.02
  23   6     0.01  -0.00  -0.01     0.04  -0.07   0.01    -0.00  -0.01   0.02
  24   1     0.00   0.00   0.01     0.01   0.03  -0.05     0.00   0.00  -0.03
  25   1    -0.01  -0.01   0.00    -0.04  -0.02  -0.09    -0.00   0.00  -0.03
  26   1    -0.01   0.01  -0.00    -0.05   0.00  -0.01    -0.01  -0.01  -0.00
                     43                     44                     45
                        a                      a                      a 
 Frequencies --  1416.3496              1416.8757              1491.7097
 Red. masses --     3.1806                 3.1645                 1.9025
 Frc consts  --     0.0000                 0.0000                 0.0000
 IR Inten    --     0.0331                 0.0350                 0.0396
 Raman Activ --     0.0000                 0.0000                 0.0000
 Depolar     --     0.0000                 0.0000                 0.0000
 Atom AN      X      Y      Z        X      Y      Z        X      Y      Z
   1   6     0.10   0.20   0.37     0.02   0.03   0.06    -0.00  -0.00  -0.00
   2   1    -0.19  -0.07  -0.46    -0.03  -0.01  -0.08     0.00   0.00   0.01
   3   1    -0.21  -0.36  -0.27    -0.04  -0.06  -0.05     0.00   0.01   0.00
   4   1     0.06  -0.23  -0.45     0.01  -0.04  -0.08    -0.00   0.00   0.00
   5   6     0.01   0.00  -0.08     0.00   0.00  -0.01     0.01   0.02  -0.01
   6   1    -0.05  -0.02   0.08    -0.01  -0.00   0.01    -0.05  -0.02   0.01
   7   6     0.01   0.02   0.00     0.00   0.01  -0.00    -0.04  -0.06   0.01
   8   1     0.00   0.01   0.01     0.00   0.00   0.00    -0.01   0.17  -0.02
   9   1     0.00   0.01   0.01     0.00   0.00   0.01     0.16   0.06  -0.01
  10   6    -0.01  -0.01   0.03    -0.00  -0.00   0.01    -0.02  -0.02   0.02
  11   1     0.00  -0.00  -0.03    -0.00   0.00  -0.01    -0.00   0.08  -0.00
  12   1     0.00  -0.00  -0.03     0.00  -0.00  -0.02     0.08   0.03  -0.01
  13   1    -0.00  -0.05   0.08    -0.00  -0.01   0.01     0.00  -0.06   0.01
  14   6     0.00  -0.00  -0.01    -0.01   0.00  -0.01     0.12   0.14  -0.01
  15   1    -0.00  -0.00   0.01     0.01   0.00   0.02    -0.44  -0.13   0.01
  16   1    -0.00   0.00   0.01    -0.00   0.01  -0.01     0.00  -0.45   0.00
  17   6    -0.00  -0.00   0.00     0.01  -0.00   0.02     0.12  -0.08   0.12
  18   1    -0.00   0.00   0.00     0.01   0.00   0.01    -0.42   0.08  -0.10
  19   1    -0.00   0.00  -0.00     0.00  -0.00   0.01     0.00   0.26  -0.35
  20   6    -0.00   0.01   0.01     0.01  -0.06  -0.04     0.03  -0.02   0.05
  21   1     0.01  -0.01  -0.00    -0.05   0.07   0.03    -0.10  -0.00  -0.05
  22   1     0.00  -0.02  -0.00    -0.00   0.09   0.01     0.01   0.07  -0.09
  23   6    -0.02  -0.03  -0.06     0.10   0.18   0.37    -0.01   0.02  -0.01
  24   1    -0.01   0.04   0.08     0.05  -0.22  -0.45    -0.00  -0.08   0.04
  25   1     0.04   0.00   0.08    -0.22  -0.01  -0.45    -0.05  -0.01  -0.02
  26   1     0.03   0.06   0.06    -0.19  -0.33  -0.33     0.06  -0.01   0.02
                     46                     47                     48
                        a                      a                      a 
 Frequencies --  1493.0133              1496.7382              1498.4114
 Red. masses --     1.9084                 1.9632                 1.8696
 Frc consts  --     0.0000                 0.0000                 0.0000
 IR Inten    --     0.0224                 0.0349                 0.0524
 Raman Activ --     0.0000                 0.0000                 0.0000
 Depolar     --     0.0000                 0.0000                 0.0000
 Atom AN      X      Y      Z        X      Y      Z        X      Y      Z
   1   6    -0.01  -0.01   0.00    -0.00  -0.00   0.00     0.03   0.05  -0.00
   2   1     0.06   0.02  -0.00     0.01   0.00  -0.01    -0.17  -0.06   0.00
   3   1    -0.01  -0.01  -0.01    -0.01  -0.01  -0.01     0.03   0.04   0.04
   4   1    -0.00   0.06  -0.00     0.00   0.01  -0.01     0.01  -0.18   0.02
   5   6     0.04   0.06   0.00    -0.02  -0.03   0.01    -0.11  -0.18  -0.02
   6   1    -0.15  -0.06  -0.01     0.09   0.03  -0.01     0.47   0.18   0.03
   7   6     0.01   0.02   0.03     0.05   0.09   0.00    -0.06  -0.09  -0.02
   8   1     0.00  -0.06  -0.01     0.01  -0.25   0.01    -0.02   0.22   0.01
   9   1    -0.06  -0.03  -0.02    -0.23  -0.08  -0.01     0.21   0.07   0.03
  10   6    -0.11  -0.17  -0.01     0.02   0.02  -0.04     0.01   0.03   0.01
  11   1    -0.03   0.47  -0.02     0.00  -0.06   0.04     0.00  -0.08  -0.00
  12   1     0.44   0.16   0.05    -0.06  -0.02   0.02    -0.08  -0.03  -0.00
  13   1     0.01  -0.16   0.00    -0.00   0.09  -0.01    -0.03   0.51  -0.01
  14   6    -0.04  -0.05  -0.02    -0.09  -0.13   0.02    -0.01  -0.01   0.00
  15   1     0.11   0.03   0.01     0.36   0.10   0.01     0.03   0.01  -0.01
  16   1    -0.00   0.11   0.01     0.00   0.38  -0.01     0.00   0.04  -0.01
  17   6    -0.02   0.03  -0.00     0.12  -0.11   0.13    -0.01   0.02  -0.01
  18   1     0.08  -0.02   0.02    -0.46   0.07  -0.11     0.06  -0.02   0.01
  19   1     0.00  -0.06   0.06    -0.00   0.29  -0.38     0.00  -0.05   0.04
  20   6     0.10  -0.08   0.12     0.02   0.02   0.04     0.07  -0.06   0.09
  21   1    -0.40   0.06  -0.13    -0.05  -0.01  -0.03    -0.30   0.05  -0.10
  22   1     0.02   0.26  -0.33     0.00   0.01  -0.06     0.01   0.20  -0.25
  23   6    -0.02  -0.01  -0.02     0.00   0.01  -0.01    -0.01   0.00  -0.01
  24   1    -0.00  -0.01   0.06    -0.00  -0.07   0.03    -0.00  -0.02   0.06
  25   1     0.02   0.01  -0.01    -0.05  -0.02  -0.02     0.01   0.00  -0.01
  26   1     0.06  -0.01   0.02     0.05   0.00   0.02     0.06  -0.01   0.02
                     49                     50                     51
                        a                      a                      a 
 Frequencies --  1500.5820              1503.5364              1505.0402
 Red. masses --     1.9631                 1.7969                 1.5320
 Frc consts  --     0.0000                 0.0000                 0.0000
 IR Inten    --     0.0455                 0.0323                 0.0252
 Raman Activ --     0.0000                 0.0000                 0.0000
 Depolar     --     0.0000                 0.0000                 0.0000
 Atom AN      X      Y      Z        X      Y      Z        X      Y      Z
   1   6    -0.01  -0.02   0.02    -0.00  -0.01  -0.01     0.18  -0.12   0.01
   2   1     0.07   0.03  -0.02     0.02   0.01   0.02    -0.17  -0.06   0.43
   3   1    -0.03  -0.04  -0.03    -0.00   0.01   0.00    -0.60   0.39  -0.05
   4   1    -0.00   0.08  -0.03    -0.00   0.03   0.01     0.04   0.15  -0.44
   5   6    -0.02  -0.03   0.03     0.08   0.12  -0.00     0.04  -0.03   0.00
   6   1     0.09   0.03  -0.02    -0.34  -0.12  -0.00    -0.00  -0.01  -0.02
   7   6     0.12   0.18  -0.02    -0.03  -0.05  -0.00    -0.00  -0.00  -0.00
   8   1     0.03  -0.51   0.03    -0.01   0.19  -0.00    -0.00   0.01   0.02
   9   1    -0.48  -0.17  -0.01     0.18   0.07   0.01     0.01   0.00  -0.02
  10   6     0.05   0.08  -0.00     0.09   0.14  -0.00    -0.01   0.00  -0.00
  11   1     0.01  -0.19   0.01     0.02  -0.42   0.01    -0.00   0.00  -0.00
  12   1    -0.18  -0.06  -0.01    -0.40  -0.14  -0.02     0.01   0.00   0.00
  13   1    -0.00   0.09  -0.02     0.02  -0.36   0.02     0.01   0.02   0.02
  14   6     0.07   0.10   0.01    -0.02  -0.03   0.02    -0.00  -0.00  -0.00
  15   1    -0.28  -0.08  -0.01     0.10   0.03  -0.01     0.00   0.00   0.00
  16   1    -0.00  -0.29  -0.00     0.00   0.11  -0.02    -0.00   0.00   0.00
  17   6    -0.02   0.04  -0.03    -0.00   0.01   0.00    -0.00  -0.00  -0.00
  18   1     0.11  -0.02   0.02     0.03  -0.02  -0.00    -0.00   0.00   0.00
  19   1     0.00  -0.08   0.09     0.00  -0.03   0.02    -0.00   0.00  -0.00
  20   6     0.05  -0.05   0.05     0.07  -0.06   0.09    -0.00   0.00  -0.00
  21   1    -0.20   0.04  -0.06    -0.29   0.05  -0.09     0.00  -0.00   0.00
  22   1     0.01   0.14  -0.16     0.01   0.19  -0.24    -0.00  -0.00   0.00
  23   6    -0.01   0.01  -0.01    -0.01   0.02  -0.02     0.00  -0.00   0.00
  24   1    -0.00  -0.04   0.04    -0.00  -0.07   0.08     0.00   0.00  -0.00
  25   1    -0.00  -0.00  -0.01    -0.02  -0.00  -0.03     0.00   0.00   0.00
  26   1     0.05  -0.01   0.02     0.09  -0.02   0.03    -0.00   0.00  -0.00
                     52                     53                     54
                        a                      a                      a 
 Frequencies --  1505.9644              1508.2962              1508.5849
 Red. masses --     1.5346                 1.6542                 1.6430
 Frc consts  --     0.0000                 0.0000                 0.0000
 IR Inten    --     0.0273                 0.0201                 0.0236
 Raman Activ --     0.0000                 0.0000                 0.0000
 Depolar     --     0.0000                 0.0000                 0.0000
 Atom AN      X      Y      Z        X      Y      Z        X      Y      Z
   1   6     0.00   0.00  -0.00    -0.10  -0.14   0.11     0.00   0.00  -0.00
   2   1    -0.01  -0.00   0.00     0.57   0.21  -0.11    -0.01  -0.01   0.00
   3   1     0.00   0.00   0.00    -0.13  -0.23  -0.17     0.01   0.00   0.00
   4   1     0.00  -0.01   0.00    -0.02   0.59  -0.15     0.00  -0.02   0.01
   5   6    -0.00  -0.00  -0.00    -0.06  -0.08   0.05     0.00   0.01  -0.00
   6   1     0.00   0.00   0.00     0.14   0.04  -0.02    -0.02  -0.01   0.00
   7   6    -0.00  -0.00   0.00    -0.03  -0.04  -0.02     0.00   0.00  -0.00
   8   1    -0.00   0.01  -0.00    -0.01   0.14   0.00     0.00  -0.01   0.00
   9   1     0.01   0.00  -0.00     0.13   0.05   0.01    -0.01  -0.00   0.00
  10   6    -0.00  -0.01  -0.00     0.00   0.00   0.01     0.01   0.02  -0.00
  11   1    -0.00   0.02  -0.00     0.00  -0.03  -0.00     0.00  -0.05   0.00
  12   1     0.02   0.01   0.00    -0.03  -0.01  -0.01    -0.04  -0.02  -0.00
  13   1    -0.00   0.00   0.00    -0.01   0.14  -0.04     0.00  -0.02   0.00
  14   6    -0.01  -0.00   0.00    -0.01  -0.01   0.00     0.01  -0.00   0.00
  15   1     0.00   0.00  -0.00     0.03   0.01  -0.00    -0.01  -0.01  -0.01
  16   1    -0.00   0.00  -0.01     0.00   0.03  -0.00     0.00  -0.01  -0.00
  17   6    -0.02   0.01  -0.01    -0.00   0.00   0.00     0.02   0.01   0.03
  18   1     0.05  -0.03  -0.00    -0.00  -0.00  -0.00    -0.08   0.01  -0.03
  19   1     0.00  -0.02   0.05    -0.00  -0.00  -0.00    -0.00   0.04  -0.07
  20   6     0.04   0.02  -0.02     0.00  -0.00   0.00     0.06  -0.09   0.03
  21   1    -0.01  -0.00  -0.02    -0.02   0.00  -0.00    -0.13   0.04  -0.02
  22   1     0.01   0.01   0.02     0.00   0.01  -0.01     0.01   0.11  -0.08
  23   6     0.17   0.08  -0.09     0.01  -0.00  -0.00     0.11  -0.17   0.05
  24   1     0.03  -0.46  -0.12     0.00   0.01  -0.01     0.03   0.47  -0.40
  25   1    -0.60  -0.26   0.28    -0.00  -0.00   0.01     0.12  -0.01   0.30
  26   1    -0.15   0.38   0.21    -0.02   0.01   0.00    -0.58   0.23  -0.09
                     55                     56                     57
                        a                      a                      a 
 Frequencies --  2954.3401              2955.5915              2955.9170
 Red. masses --     1.8895                 1.9136                 1.9271
 Frc consts  --     0.0000                 0.0000                 0.0000
 IR Inten    --     0.0722                 0.1273                 0.0884
 Raman Activ --     0.0000                 0.0000                 0.0000
 Depolar     --     0.0000                 0.0000                 0.0000
 Atom AN      X      Y      Z        X      Y      Z        X      Y      Z
   1   6    -0.00   0.00  -0.00     0.00  -0.00   0.00     0.01  -0.00   0.00
   2   1     0.00  -0.02  -0.00    -0.00   0.00   0.00    -0.01   0.02   0.00
   3   1    -0.00   0.00  -0.00     0.00   0.00  -0.00     0.00  -0.00   0.00
   4   1     0.02   0.00   0.00    -0.00  -0.00  -0.00    -0.02  -0.00  -0.00
   5   6     0.08  -0.06   0.01    -0.01   0.01  -0.00    -0.09   0.06  -0.01
   6   1    -0.08   0.23  -0.01     0.01  -0.02   0.00     0.09  -0.25   0.01
   7   6    -0.15   0.10  -0.01     0.01  -0.01   0.00     0.11  -0.09   0.01
   8   1     0.43   0.03   0.02    -0.03  -0.00  -0.00    -0.29  -0.02  -0.01
   9   1     0.14  -0.40   0.02    -0.02   0.04  -0.00    -0.12   0.35  -0.02
  10   6     0.12  -0.05   0.01    -0.02   0.02  -0.00     0.04  -0.02   0.00
  11   1    -0.38  -0.02  -0.02     0.07   0.01   0.00    -0.11  -0.01  -0.00
  12   1    -0.07   0.23  -0.01     0.02  -0.08   0.00    -0.03   0.09  -0.01
  13   1    -0.23  -0.02  -0.01     0.01   0.00   0.00     0.26   0.02   0.01
  14   6    -0.08   0.09  -0.00     0.10  -0.04   0.01    -0.14   0.15  -0.00
  15   1     0.09  -0.33   0.00    -0.03   0.15  -0.00     0.16  -0.55   0.00
  16   1     0.22   0.01   0.00    -0.34   0.00  -0.01     0.36   0.01   0.01
  17   6    -0.04  -0.03   0.05    -0.19  -0.10   0.13    -0.02  -0.03   0.05
  18   1     0.06   0.13  -0.17     0.16   0.35  -0.47     0.08   0.14  -0.19
  19   1     0.07  -0.00   0.00     0.54   0.01   0.02    -0.01  -0.01   0.01
  20   6     0.03   0.01  -0.01     0.08   0.03  -0.03     0.04   0.01  -0.01
  21   1    -0.02  -0.04   0.05    -0.06  -0.12   0.14    -0.02  -0.04   0.04
  22   1    -0.11  -0.00  -0.01    -0.26  -0.00  -0.02    -0.12  -0.00  -0.01
  23   6    -0.00   0.00   0.00    -0.00   0.00  -0.00    -0.00   0.00  -0.00
  24   1     0.01   0.00   0.00     0.02   0.00   0.00     0.01   0.00   0.00
  25   1     0.00  -0.00  -0.00     0.00  -0.01  -0.00     0.00  -0.00  -0.00
  26   1     0.00   0.00  -0.00     0.00   0.00  -0.01    -0.00   0.00  -0.00
                     58                     59                     60
                        a                      a                      a 
 Frequencies --  2964.5921              2968.0329              2972.1902
 Red. masses --     1.9185                 1.7508                 1.8248
 Frc consts  --     0.0000                 0.0000                 0.0000
 IR Inten    --     0.0585                 0.1743                 0.2685
 Raman Activ --     0.0000                 0.0000                 0.0000
 Depolar     --     0.0000                 0.0000                 0.0000
 Atom AN      X      Y      Z        X      Y      Z        X      Y      Z
   1   6     0.02  -0.01   0.00     0.00  -0.00   0.00     0.02  -0.01   0.00
   2   1    -0.02   0.05  -0.00    -0.00   0.00   0.00    -0.02   0.06  -0.00
   3   1     0.00  -0.00   0.00     0.00  -0.00   0.00     0.01   0.00  -0.01
   4   1    -0.06  -0.01  -0.00    -0.01  -0.00  -0.00    -0.05  -0.00  -0.00
   5   6    -0.18   0.10  -0.01    -0.01   0.01  -0.00    -0.10   0.10  -0.01
   6   1     0.14  -0.39   0.02     0.02  -0.05   0.00     0.14  -0.38   0.02
   7   6    -0.04   0.04  -0.00    -0.02  -0.01  -0.00    -0.12   0.09  -0.01
   8   1     0.11   0.01   0.01     0.10   0.00   0.00     0.28   0.02   0.01
   9   1     0.05  -0.13   0.01    -0.02   0.04  -0.00     0.12  -0.34   0.02
  10   6     0.16  -0.04   0.01     0.01   0.00  -0.00    -0.13  -0.02  -0.01
  11   1    -0.54  -0.02  -0.03    -0.05  -0.00  -0.00     0.50   0.01   0.03
  12   1    -0.04   0.17  -0.01     0.00  -0.00  -0.00    -0.05   0.07  -0.01
  13   1     0.49   0.03   0.03     0.03   0.00   0.00     0.22   0.02   0.01
  14   6     0.04  -0.08  -0.00     0.06   0.04   0.00     0.04   0.06   0.00
  15   1    -0.10   0.30   0.00     0.07  -0.17   0.00     0.09  -0.24   0.00
  16   1    -0.04  -0.01  -0.00    -0.29   0.02  -0.01    -0.23   0.02  -0.01
  17   6    -0.02   0.02  -0.03    -0.00  -0.06   0.08     0.07  -0.00   0.01
  18   1    -0.04  -0.07   0.10     0.12   0.22  -0.30     0.02   0.02  -0.02
  19   1     0.13   0.01  -0.01    -0.13  -0.01   0.01    -0.26  -0.01   0.01
  20   6    -0.01   0.00  -0.00    -0.22  -0.04   0.03     0.06   0.01  -0.01
  21   1    -0.00   0.00  -0.00     0.03   0.11  -0.13    -0.02  -0.04   0.05
  22   1     0.05   0.00   0.00     0.76   0.02   0.04    -0.20  -0.00  -0.01
  23   6     0.00  -0.00   0.00     0.02   0.01  -0.01    -0.01   0.00   0.00
  24   1    -0.01  -0.00  -0.00    -0.07  -0.00  -0.01     0.03   0.00   0.00
  25   1    -0.00   0.01   0.00     0.00   0.01  -0.00     0.00  -0.01  -0.00
  26   1     0.00   0.00  -0.00    -0.02  -0.04   0.04     0.00   0.01  -0.01
                     61                     62                     63
                        a                      a                      a 
 Frequencies --  2972.6107              2976.1905              2978.6096
 Red. masses --     1.4744                 1.4890                 1.5594
 Frc consts  --     0.0000                 0.0000                 0.0000
 IR Inten    --     0.0956                 0.1714                 0.1678
 Raman Activ --     0.0000                 0.0000                 0.0000
 Depolar     --     0.0000                 0.0000                 0.0000
 Atom AN      X      Y      Z        X      Y      Z        X      Y      Z
   1   6     0.00   0.00  -0.00     0.00   0.00  -0.00    -0.01  -0.02   0.01
   2   1     0.00  -0.01   0.00     0.00  -0.00  -0.00    -0.02   0.05   0.00
   3   1    -0.00   0.00   0.00    -0.00  -0.01   0.01     0.02   0.02  -0.04
   4   1     0.00   0.00   0.00    -0.00   0.00  -0.00     0.05  -0.00   0.01
   5   6     0.05   0.05   0.00    -0.04  -0.06  -0.00     0.08   0.14  -0.00
   6   1     0.08  -0.18   0.01    -0.10   0.23  -0.01     0.21  -0.49   0.03
   7   6    -0.07  -0.13   0.00     0.05   0.06   0.00     0.03   0.05  -0.00
   8   1     0.49  -0.00   0.02    -0.30  -0.00  -0.02    -0.16   0.00  -0.01
   9   1    -0.21   0.49  -0.03     0.11  -0.25   0.01     0.07  -0.17   0.01
  10   6     0.03  -0.01   0.00    -0.01  -0.02   0.00    -0.02  -0.06   0.00
  11   1    -0.11  -0.00  -0.01     0.08  -0.00   0.00     0.17  -0.00   0.01
  12   1    -0.00   0.02  -0.00    -0.04   0.11  -0.01    -0.09   0.21  -0.01
  13   1    -0.26  -0.00  -0.01     0.23   0.00   0.01    -0.51   0.00  -0.03
  14   6     0.06   0.06  -0.00     0.03   0.10  -0.00    -0.07  -0.02  -0.00
  15   1     0.08  -0.23  -0.00     0.13  -0.38   0.00    -0.04   0.08   0.00
  16   1    -0.32   0.02  -0.01    -0.27   0.02  -0.01     0.28  -0.01   0.01
  17   6    -0.02   0.05  -0.06    -0.10   0.05  -0.07    -0.09   0.00  -0.01
  18   1    -0.11  -0.18   0.25    -0.13  -0.21   0.28    -0.03  -0.03   0.04
  19   1     0.21   0.01  -0.01     0.49   0.03  -0.02     0.34   0.01  -0.01
  20   6     0.02  -0.01   0.01    -0.05  -0.02   0.03    -0.06  -0.01   0.01
  21   1     0.02   0.03  -0.04     0.05   0.09  -0.11     0.01   0.03  -0.03
  22   1    -0.10  -0.00  -0.00     0.10   0.00   0.01     0.22   0.01   0.01
  23   6    -0.00  -0.00   0.00     0.01  -0.00   0.00     0.01  -0.00  -0.00
  24   1    -0.00   0.00   0.00    -0.04  -0.00  -0.00    -0.05  -0.00  -0.00
  25   1    -0.00   0.00   0.00    -0.00   0.01   0.00    -0.00   0.02   0.00
  26   1     0.00   0.01  -0.01     0.00   0.00   0.00    -0.00  -0.01   0.01
                     64                     65                     66
                        a                      a                      a 
 Frequencies --  2981.2303              2987.0350              2993.1587
 Red. masses --     1.8443                 1.5378                 1.6147
 Frc consts  --     0.0000                 0.0000                 0.0000
 IR Inten    --     0.5066                 0.3075                 0.4036
 Raman Activ --     0.0000                 0.0000                 0.0000
 Depolar     --     0.0000                 0.0000                 0.0000
 Atom AN      X      Y      Z        X      Y      Z        X      Y      Z
   1   6    -0.02  -0.00   0.00     0.01   0.01  -0.01     0.00   0.01  -0.01
   2   1     0.00  -0.01   0.00     0.01  -0.03   0.00     0.02  -0.04   0.00
   3   1     0.01   0.01  -0.02    -0.01  -0.02   0.03    -0.01  -0.01   0.02
   4   1     0.06   0.00   0.00    -0.04   0.00  -0.00    -0.02   0.00  -0.00
   5   6     0.07   0.01   0.00    -0.04  -0.05   0.00    -0.01  -0.04   0.00
   6   1     0.02  -0.02   0.00    -0.08   0.19  -0.01    -0.06   0.14  -0.01
   7   6     0.11  -0.00   0.00    -0.04  -0.05  -0.00    -0.00  -0.05   0.00
   8   1    -0.38  -0.01  -0.02     0.22  -0.00   0.01     0.07  -0.00   0.00
   9   1     0.01   0.00  -0.00    -0.08   0.18  -0.01    -0.07   0.16  -0.01
  10   6     0.11  -0.12   0.01    -0.04  -0.10   0.00     0.01  -0.15   0.01
  11   1    -0.20  -0.02  -0.01     0.29  -0.01   0.02     0.20  -0.02   0.01
  12   1    -0.17   0.46  -0.03    -0.15   0.35  -0.02    -0.23   0.57  -0.03
  13   1    -0.26  -0.01  -0.01     0.22   0.00   0.01     0.10  -0.00   0.00
  14   6     0.12  -0.00   0.00    -0.05  -0.03  -0.00     0.00  -0.05   0.00
  15   1     0.02  -0.02   0.00    -0.04   0.10  -0.00    -0.06   0.17  -0.00
  16   1    -0.45   0.02  -0.01     0.21  -0.01   0.00     0.05  -0.01   0.00
  17   6     0.09   0.01  -0.01    -0.03   0.01  -0.02    -0.01  -0.03   0.03
  18   1     0.01  -0.01   0.01    -0.03  -0.05   0.07     0.05   0.09  -0.12
  19   1    -0.33  -0.01   0.00     0.15   0.01  -0.00    -0.01  -0.00   0.00
  20   6     0.06   0.05  -0.06    -0.02   0.09  -0.11    -0.01  -0.09   0.11
  21   1    -0.11  -0.19   0.23    -0.22  -0.35   0.42     0.22   0.35  -0.42
  22   1    -0.09   0.01  -0.01     0.30   0.02  -0.00    -0.18  -0.02   0.01
  23   6    -0.02  -0.01   0.01     0.01  -0.03   0.01     0.01   0.03  -0.02
  24   1     0.04  -0.00   0.00    -0.03  -0.01  -0.00    -0.00   0.01  -0.00
  25   1    -0.00   0.00   0.00    -0.02   0.05   0.01     0.03  -0.06  -0.01
  26   1     0.02   0.03  -0.04     0.03   0.04  -0.06    -0.05  -0.07   0.09
                     67                     68                     69
                        a                      a                      a 
 Frequencies --  3026.0446              3028.6516              3029.1743
 Red. masses --     1.9500                 1.9505                 1.8685
 Frc consts  --     0.0000                 0.0000                 0.0000
 IR Inten    --     0.2957                 0.2400                 0.3282
 Raman Activ --     0.0000                 0.0000                 0.0000
 Depolar     --     0.0000                 0.0000                 0.0000
 Atom AN      X      Y      Z        X      Y      Z        X      Y      Z
   1   6     0.01   0.00  -0.00     0.25  -0.13   0.01     0.05  -0.02  -0.00
   2   1     0.00  -0.01  -0.00    -0.18   0.54  -0.03    -0.03   0.09  -0.00
   3   1    -0.00  -0.01   0.01     0.02  -0.04   0.04    -0.00  -0.01   0.02
   4   1    -0.02  -0.00  -0.00    -0.73  -0.05  -0.05    -0.16  -0.01  -0.01
   5   6     0.00  -0.00  -0.00     0.04  -0.02   0.00     0.01  -0.00   0.00
   6   1    -0.00   0.00  -0.00    -0.02   0.06  -0.01    -0.00   0.01  -0.00
   7   6    -0.00  -0.00  -0.00     0.01  -0.00   0.00     0.00  -0.00   0.00
   8   1     0.00  -0.00   0.00    -0.03  -0.00  -0.00    -0.01  -0.00  -0.00
   9   1    -0.00   0.00  -0.00    -0.01   0.02  -0.00    -0.00   0.01  -0.00
  10   6    -0.00  -0.01   0.00     0.00  -0.00   0.00     0.00  -0.00   0.00
  11   1     0.01  -0.00   0.00    -0.01  -0.00  -0.00    -0.01  -0.00  -0.00
  12   1    -0.01   0.02  -0.00    -0.00   0.01   0.00    -0.00   0.01  -0.00
  13   1     0.00  -0.00   0.00    -0.09  -0.00  -0.00    -0.02  -0.00  -0.00
  14   6    -0.00  -0.00   0.00     0.00  -0.00  -0.00     0.00  -0.00   0.00
  15   1    -0.00   0.01  -0.00     0.00   0.00  -0.00    -0.00   0.01  -0.00
  16   1     0.01  -0.00   0.00    -0.00   0.00   0.00    -0.01  -0.00  -0.00
  17   6    -0.01  -0.01   0.01    -0.00   0.00  -0.00     0.01  -0.01   0.01
  18   1     0.01   0.02  -0.03    -0.00  -0.01   0.01     0.02   0.03  -0.03
  19   1     0.02  -0.00   0.00     0.01   0.00  -0.00    -0.05  -0.00   0.00
  20   6    -0.04  -0.03   0.03    -0.00   0.00  -0.00     0.02  -0.02   0.02
  21   1     0.05   0.09  -0.10    -0.01  -0.01   0.01     0.03   0.05  -0.06
  22   1     0.06  -0.00   0.00     0.01   0.00  -0.00    -0.09  -0.00  -0.00
  23   6    -0.21  -0.13   0.14    -0.03   0.04  -0.02     0.18  -0.19   0.07
  24   1     0.53  -0.01   0.06     0.13   0.01   0.01    -0.66  -0.04  -0.03
  25   1    -0.05   0.03   0.03     0.04  -0.10  -0.01    -0.17   0.48   0.06
  26   1     0.27   0.45  -0.57    -0.04  -0.05   0.07     0.18   0.22  -0.30
                     70                     71                     72
                        a                      a                      a 
 Frequencies --  3031.1385              3034.7975              3036.2863
 Red. masses --     1.9196                 1.3353                 1.2768
 Frc consts  --     0.0000                 0.0000                 0.0000
 IR Inten    --     0.2869                 0.2036                 0.1711
 Raman Activ --     0.0000                 0.0000                 0.0000
 Depolar     --     0.0000                 0.0000                 0.0000
 Atom AN      X      Y      Z        X      Y      Z        X      Y      Z
   1   6    -0.11  -0.22   0.14    -0.00  -0.01  -0.01    -0.00   0.04   0.15
   2   1    -0.24   0.52  -0.00    -0.02   0.04  -0.00     0.19  -0.47   0.04
   3   1     0.23   0.28  -0.53    -0.02  -0.02   0.04     0.26   0.34  -0.57
   4   1     0.39  -0.02   0.05     0.04   0.00   0.00    -0.44  -0.01  -0.01
   5   6    -0.01  -0.03   0.00    -0.00  -0.00  -0.00     0.00   0.00   0.01
   6   1    -0.03   0.08  -0.01    -0.00   0.00  -0.00     0.00  -0.01   0.00
   7   6    -0.01  -0.01   0.00     0.00  -0.00   0.00     0.00   0.00  -0.00
   8   1     0.04  -0.00   0.00     0.00  -0.00   0.00    -0.01   0.00  -0.00
   9   1    -0.02   0.04  -0.00    -0.00   0.00  -0.00     0.00  -0.01   0.00
  10   6    -0.00  -0.01   0.00    -0.00  -0.00  -0.00    -0.00   0.00   0.00
  11   1     0.01  -0.00   0.00     0.00   0.00   0.00     0.00   0.00  -0.00
  12   1    -0.01   0.02  -0.00    -0.00   0.00  -0.00     0.00  -0.00  -0.00
  13   1     0.07  -0.00   0.00     0.00  -0.00   0.00    -0.00   0.00   0.00
  14   6    -0.00  -0.00   0.00     0.00   0.00   0.00     0.00   0.00  -0.00
  15   1    -0.00   0.01  -0.00     0.00  -0.00  -0.00     0.00  -0.00   0.00
  16   1     0.01  -0.00  -0.00    -0.00   0.00   0.00    -0.00   0.00  -0.00
  17   6    -0.00  -0.00   0.00    -0.00   0.00  -0.00    -0.00   0.00  -0.00
  18   1     0.00   0.00  -0.00    -0.00  -0.00   0.00    -0.00  -0.00   0.00
  19   1     0.00  -0.00   0.00     0.00   0.00  -0.00     0.00   0.00  -0.00
  20   6    -0.00  -0.00   0.00    -0.00  -0.01  -0.00     0.00  -0.00  -0.00
  21   1     0.00   0.00  -0.01     0.00   0.01  -0.01    -0.00  -0.00   0.00
  22   1    -0.00  -0.00   0.00    -0.00  -0.00  -0.00    -0.00   0.00  -0.00
  23   6     0.00  -0.01   0.01    -0.00  -0.14  -0.09     0.00  -0.01  -0.01
  24   1    -0.01  -0.00   0.00     0.43  -0.01   0.02     0.03  -0.00   0.00
  25   1    -0.00   0.00   0.00    -0.30   0.74   0.07    -0.02   0.05   0.01
  26   1     0.01   0.02  -0.02    -0.13  -0.22   0.25    -0.01  -0.02   0.02
