 Entering Gaussian System
 *********************************************
 Gaussian 98:
 frequency output generated by the xtb code
 *********************************************
                         Standard orientation:
 --------------------------------------------------------------------
  Center     Atomic     Atomic              Coordinates (Angstroms)
  Number     Number      Type              X           Y           Z
 --------------------------------------------------------------------
    1          6             0       -2.723561   -0.289729   -0.069611
    2          1             0       -2.333027   -1.304752   -0.039979
    3          1             0       -2.333817    0.202059   -0.958006
    4          1             0       -3.807010   -0.343621   -0.154151
    5          6             0       -2.323498    0.473194    1.187365
    6          1             0       -2.707748    1.494351    1.129637
    7          6             0       -2.856902   -0.195121    2.452381
    8          1             0       -3.946724   -0.252678    2.396647
    9          1             0       -2.475857   -1.217995    2.506375
   10          6             0       -2.456335    0.561401    3.716644
   11          1             0       -1.366386    0.609919    3.777613
   12          1             0       -2.831378    1.584234    3.650629
   13          1             0       -1.234004    0.533571    1.243778
   14          6             0       -3.001485   -0.109082    4.976062
   15          1             0       -2.686572   -1.155903    4.977786
   16          1             0       -4.093769   -0.095291    4.948465
   17          6             0       -2.520893    0.545331    6.271565
   18          1             0       -2.836121   -0.076575    7.113598
   19          1             0       -1.428546    0.575354    6.276511
   20          6             0       -3.063770    1.957506    6.480842
   21          1             0       -2.690577    2.616492    5.695175
   22          1             0       -4.154052    1.937976    6.410725
   23          6             0       -2.654252    2.519098    7.837128
   24          1             0       -1.570052    2.551122    7.924866
   25          1             0       -3.038741    3.528328    7.966859
   26          1             0       -3.043359    1.897887    8.641622
 --------------------------------------------------------------------
     1 basis functions        1 primitive gaussians
     1 alpha electrons        1 beta electrons
 
 Harmonic frequencies (cm**-1), IR intensities (KM/Mole),
 Raman scattering activities (A**4/amu), Raman depolarization ratios,
 reduced masses (AMU), force constants (mDyne/A) and normal coordinates:
                      1                      2                      3
                        a                      a                      a 
 Frequencies --    44.5991                64.5516                70.4763
 Red. masses --    99.0000                99.0000                99.0000
 Frc consts  --    99.0000                99.0000                99.0000
 IR Inten    --    99.0000                99.0000                99.0000
 Raman Activ --     0.0000                 0.0000                 0.0000
 Depolar     --     0.0000                 0.0000                 0.0000
 Atom AN      X      Y      Z        X      Y      Z        X      Y      Z
   1   6     0.40  -0.22   0.01    -0.08   0.13   0.03     0.04   0.32   0.01
   2   1     0.28   0.00   0.05     0.08   0.08  -0.04     0.04   0.10  -0.06
   3   1     0.06  -0.02   0.00    -0.11   0.11   0.01    -0.01   0.16   0.03
   4   1     0.13  -0.25  -0.04    -0.02  -0.07   0.05     0.01   0.07   0.01
   5   6    -0.20   0.14  -0.02    -0.18   0.14   0.06    -0.00   0.12   0.14
   6   1    -0.22  -0.02  -0.05    -0.15   0.01   0.06    -0.03   0.03   0.10
   7   6    -0.01  -0.02  -0.02     0.17  -0.15   0.06     0.10  -0.15   0.05
   8   1     0.01  -0.13  -0.02     0.05  -0.15   0.05     0.03  -0.09   0.01
   9   1     0.12   0.04   0.01     0.15  -0.01  -0.02     0.07  -0.03  -0.02
  10   6    -0.36   0.19  -0.03     0.04  -0.10   0.07    -0.01  -0.21   0.11
  11   1    -0.11   0.16   0.01     0.01  -0.00   0.04    -0.00  -0.06   0.05
  12   1    -0.20   0.02  -0.03    -0.01  -0.04   0.01    -0.00  -0.06   0.03
  13   1    -0.07   0.21   0.04    -0.06   0.14  -0.02    -0.00   0.06   0.04
  14   6    -0.19   0.05  -0.03     0.01  -0.11   0.05    -0.08  -0.20   0.08
  15   1    -0.04   0.02  -0.04     0.00  -0.03   0.02    -0.02  -0.06   0.04
  16   1    -0.05  -0.00   0.03     0.00  -0.03  -0.00    -0.02  -0.06   0.01
  17   6    -0.06  -0.04  -0.03    -0.08  -0.08   0.07    -0.15  -0.11   0.07
  18   1    -0.02  -0.01  -0.01    -0.14   0.04   0.02    -0.04  -0.01   0.03
  19   1    -0.02  -0.04  -0.03    -0.02  -0.13   0.09    -0.04  -0.02   0.02
  20   6     0.08  -0.00   0.07     0.35   0.13  -0.27    -0.20  -0.10  -0.06
  21   1     0.01  -0.00   0.01     0.30  -0.01  -0.02    -0.16  -0.07  -0.10
  22   1     0.02   0.03   0.05     0.11   0.16  -0.26    -0.07  -0.06   0.10
  23   6     0.28  -0.08   0.04    -0.21   0.02  -0.06     0.28   0.28  -0.37
  24   1     0.09  -0.05  -0.02    -0.07  -0.14   0.17     0.09   0.13  -0.24
  25   1     0.11  -0.01   0.03     0.05   0.06  -0.10     0.05   0.07  -0.13
  26   1     0.09  -0.02   0.02    -0.28   0.07  -0.07     0.21   0.12  -0.02
                      4                      5                      6
                        a                      a                      a 
 Frequencies --   108.0770               122.0837               234.2701
 Red. masses --    99.0000                99.0000                99.0000
 Frc consts  --    99.0000                99.0000                99.0000
 IR Inten    --    99.0000                99.0000                99.0000
 Raman Activ --     0.0000                 0.0000                 0.0000
 Depolar     --     0.0000                 0.0000                 0.0000
 Atom AN      X      Y      Z        X      Y      Z        X      Y      Z
   1   6    -0.22  -0.12  -0.01    -0.22   0.13  -0.02     0.04  -0.02  -0.01
   2   1     0.04   0.00  -0.04    -0.21  -0.02  -0.05    -0.37  -0.15   0.28
   3   1    -0.20  -0.00  -0.04    -0.02   0.01  -0.00     0.46  -0.29   0.03
   4   1    -0.07  -0.14   0.10    -0.07   0.20   0.03     0.02   0.38  -0.32
   5   6    -0.06   0.03  -0.14     0.28  -0.19   0.01    -0.23   0.14  -0.02
   6   1    -0.10  -0.02  -0.02     0.17  -0.02   0.06    -0.16   0.00  -0.01
   7   6     0.41  -0.09  -0.01     0.31  -0.20   0.02     0.10  -0.08   0.01
   8   1     0.12  -0.12   0.05     0.10  -0.21  -0.06     0.03  -0.12   0.04
   9   1     0.21   0.00  -0.02     0.22  -0.00   0.09     0.12   0.01  -0.03
  10   6     0.35  -0.00  -0.04    -0.36   0.24  -0.03     0.08  -0.06   0.00
  11   1     0.10  -0.07   0.06    -0.12   0.29   0.03     0.02  -0.03   0.01
  12   1     0.17   0.02  -0.07    -0.30  -0.01  -0.06     0.03  -0.01  -0.01
  13   1    -0.02   0.09  -0.13     0.09  -0.15  -0.05    -0.07   0.14  -0.01
  14   6    -0.14   0.22  -0.13    -0.05   0.02  -0.01    -0.01   0.01  -0.00
  15   1    -0.14   0.03  -0.01     0.06   0.03  -0.03    -0.03  -0.00   0.01
  16   1    -0.04   0.17  -0.11    -0.02  -0.07   0.03    -0.00   0.03  -0.01
  17   6    -0.24   0.04   0.00    -0.03   0.02  -0.02    -0.02  -0.00   0.01
  18   1    -0.10  -0.02  -0.03    -0.01   0.00  -0.01    -0.03   0.01  -0.00
  19   1    -0.07  -0.01   0.03    -0.01  -0.00  -0.01    -0.01  -0.02   0.02
  20   6    -0.17   0.04   0.17     0.02   0.03   0.01     0.03   0.02  -0.01
  21   1    -0.08   0.02   0.04     0.02   0.01   0.01     0.02   0.01   0.00
  22   1    -0.05   0.02   0.11     0.01   0.02   0.00     0.01   0.02  -0.01
  23   6     0.10  -0.08   0.14     0.05  -0.05   0.04    -0.01  -0.00   0.01
  24   1     0.04  -0.02  -0.02     0.01  -0.04   0.01    -0.00   0.09  -0.02
  25   1     0.03  -0.03   0.09     0.04  -0.01   0.02    -0.09  -0.04   0.05
  26   1     0.08  -0.05   0.05    -0.00  -0.01   0.00     0.07  -0.06  -0.01
                      7                      8                      9
                        a                      a                      a 
 Frequencies --   161.0585               231.2741               260.9192
 Red. masses --    99.0000                99.0000                99.0000
 Frc consts  --    99.0000                99.0000                99.0000
 IR Inten    --    99.0000                99.0000                99.0000
 Raman Activ --     0.0000                 0.0000                 0.0000
 Depolar     --     0.0000                 0.0000                 0.0000
 Atom AN      X      Y      Z        X      Y      Z        X      Y      Z
   1   6    -0.13  -0.24   0.22    -0.04  -0.02   0.13     0.05   0.03  -0.24
   2   1    -0.09  -0.08   0.16     0.05   0.02   0.01     0.04   0.02  -0.12
   3   1    -0.04  -0.18   0.00    -0.10   0.02   0.01     0.01   0.07  -0.04
   4   1    -0.04  -0.03   0.09    -0.01  -0.07   0.11     0.02  -0.02  -0.09
   5   6     0.06   0.12  -0.06     0.07   0.03   0.06    -0.06  -0.12  -0.10
   6   1     0.04   0.04  -0.08     0.03   0.01   0.01     0.00  -0.03  -0.03
   7   6     0.07   0.38   0.06     0.03   0.06   0.04    -0.11  -0.05  -0.06
   8   1     0.02   0.13   0.02     0.01   0.02  -0.00    -0.03   0.02  -0.01
   9   1    -0.01   0.10   0.03     0.00   0.02   0.02    -0.06  -0.03  -0.01
  10   6     0.07   0.31   0.09    -0.04   0.04   0.05     0.02  -0.03  -0.07
  11   1     0.02   0.13   0.02    -0.01  -0.00   0.04     0.01   0.04  -0.08
  12   1    -0.03   0.07   0.07     0.00   0.02   0.01    -0.05  -0.02   0.01
  13   1     0.02   0.01  -0.05     0.02  -0.01   0.01    -0.02  -0.05  -0.01
  14   6     0.16  -0.10  -0.09    -0.17   0.04  -0.02     0.32  -0.14   0.02
  15   1     0.13  -0.00  -0.08    -0.12  -0.01  -0.03     0.27   0.01   0.06
  16   1     0.04  -0.11  -0.06    -0.05   0.09   0.01     0.09  -0.23  -0.05
  17   6    -0.20  -0.27   0.12     0.05  -0.11  -0.04    -0.35   0.07   0.20
  18   1    -0.18  -0.07  -0.01    -0.02  -0.01  -0.01    -0.28   0.05   0.01
  19   1    -0.06  -0.13   0.15     0.01  -0.09  -0.02    -0.10  -0.05   0.24
  20   6    -0.04  -0.18  -0.10     0.23  -0.02  -0.16    -0.01   0.24   0.07
  21   1     0.02  -0.10  -0.06     0.13  -0.02  -0.02     0.08   0.05   0.04
  22   1    -0.01  -0.02  -0.03     0.07   0.01  -0.12    -0.00   0.16  -0.01
  23   6     0.05   0.03  -0.22    -0.09  -0.02  -0.07     0.11   0.00   0.16
  24   1     0.02  -0.04  -0.07    -0.03   0.47  -0.13     0.03   0.14  -0.04
  25   1     0.07   0.04  -0.13    -0.47  -0.20   0.15    -0.09  -0.06   0.18
  26   1    -0.02   0.08  -0.02     0.33  -0.29  -0.06     0.18  -0.13   0.02
                     10                     11                     12
                        a                      a                      a 
 Frequencies --   279.7420               347.7452               423.0851
 Red. masses --    99.0000                99.0000                99.0000
 Frc consts  --    99.0000                99.0000                99.0000
 IR Inten    --    99.0000                99.0000                99.0000
 Raman Activ --     0.0000                 0.0000                 0.0000
 Depolar     --     0.0000                 0.0000                 0.0000
 Atom AN      X      Y      Z        X      Y      Z        X      Y      Z
   1   6    -0.02   0.00   0.29    -0.08  -0.13   0.03    -0.00   0.05   0.42
   2   1    -0.01  -0.00   0.11    -0.03  -0.04   0.10    -0.01   0.01   0.18
   3   1    -0.02  -0.03   0.06    -0.09  -0.15  -0.08    -0.05  -0.06   0.06
   4   1    -0.01   0.00   0.11    -0.03  -0.04   0.10    -0.01   0.01   0.18
   5   6     0.03   0.09   0.19     0.20   0.28  -0.28     0.08   0.15   0.22
   6   1     0.01   0.02   0.06     0.05   0.07  -0.12     0.02   0.04   0.10
   7   6    -0.01   0.01   0.10     0.14   0.17  -0.30    -0.12  -0.21  -0.17
   8   1    -0.00   0.02   0.03     0.04   0.05  -0.15    -0.03  -0.05  -0.08
   9   1    -0.01  -0.00   0.01     0.03   0.04  -0.16    -0.03  -0.06  -0.08
  10   6     0.03  -0.05   0.06    -0.17  -0.32   0.11    -0.03  -0.11  -0.36
  11   1     0.01  -0.02   0.01    -0.05  -0.08   0.07    -0.01  -0.02  -0.15
  12   1     0.01  -0.01   0.04    -0.05  -0.08   0.09    -0.02  -0.04  -0.13
  13   1     0.01   0.02   0.06     0.06   0.08  -0.12     0.02   0.04   0.10
  14   6     0.05  -0.11  -0.03    -0.14  -0.32   0.19     0.11   0.00  -0.32
  15   1     0.10  -0.01   0.04     0.01  -0.08   0.12     0.08   0.02  -0.07
  16   1     0.02  -0.11  -0.03    -0.04  -0.13   0.08     0.03  -0.06  -0.11
  17   6    -0.09   0.29  -0.25     0.01   0.09   0.00    -0.09  -0.06  -0.16
  18   1     0.03   0.12  -0.02     0.08   0.06   0.05    -0.08  -0.06  -0.10
  19   1    -0.03   0.14  -0.09     0.00   0.05  -0.08    -0.02  -0.05   0.00
  20   6    -0.18   0.24  -0.29     0.04   0.13   0.09     0.07  -0.01   0.17
  21   1    -0.05   0.12  -0.04     0.01   0.05   0.04     0.02   0.00   0.05
  22   1    -0.05   0.09  -0.06     0.01   0.05   0.03     0.02   0.02   0.05
  23   6     0.12  -0.41  -0.13     0.01   0.11   0.14    -0.00   0.19   0.17
  24   1     0.04  -0.20  -0.10     0.00   0.04   0.05    -0.00   0.09   0.08
  25   1     0.10  -0.12   0.15    -0.01   0.03   0.04    -0.03   0.05  -0.03
  26   1     0.05  -0.22  -0.11     0.00   0.03   0.04    -0.01   0.10   0.08
                     13                     14                     15
                        a                      a                      a 
 Frequencies --   521.5083               767.4475               779.4507
 Red. masses --    99.0000                99.0000                99.0000
 Frc consts  --    99.0000                99.0000                99.0000
 IR Inten    --    99.0000                99.0000                99.0000
 Raman Activ --     0.0000                 0.0000                 0.0000
 Depolar     --     0.0000                 0.0000                 0.0000
 Atom AN      X      Y      Z        X      Y      Z        X      Y      Z
   1   6     0.01  -0.00  -0.10    -0.00   0.01   0.00    -0.02   0.00  -0.01
   2   1     0.01   0.00  -0.09     0.05   0.02   0.05     0.09   0.04   0.08
   3   1     0.04   0.07   0.03     0.01  -0.02  -0.01     0.04  -0.02   0.01
   4   1     0.01   0.00  -0.09     0.01  -0.06  -0.03     0.01  -0.11  -0.10
   5   6    -0.10  -0.14   0.06    -0.05   0.05  -0.01    -0.11   0.06  -0.00
   6   1    -0.03  -0.04   0.00     0.19   0.09  -0.03     0.27   0.12  -0.02
   7   6     0.08   0.14   0.24    -0.11   0.04  -0.03    -0.08   0.10   0.02
   8   1     0.02   0.05   0.12    -0.01  -0.35  -0.03    -0.01  -0.25   0.06
   9   1     0.01   0.03   0.11     0.30   0.13   0.03     0.24   0.12  -0.02
  10   6     0.11   0.10   0.18    -0.10   0.10  -0.03    -0.04  -0.04   0.05
  11   1     0.03   0.02   0.11    -0.00  -0.37  -0.01    -0.01  -0.06  -0.03
  12   1     0.03   0.03   0.12     0.35   0.16  -0.01     0.03   0.01   0.10
  13   1    -0.03  -0.03   0.00    -0.00  -0.21   0.05    -0.01  -0.29   0.03
  14   6    -0.15  -0.35  -0.26    -0.07   0.11   0.04     0.04  -0.08  -0.04
  15   1     0.09  -0.06  -0.06     0.24   0.11  -0.05    -0.08  -0.05   0.00
  16   1    -0.04  -0.22  -0.14    -0.02  -0.24   0.05     0.01   0.08   0.03
  17   6    -0.12  -0.04  -0.42    -0.06  -0.01   0.09     0.10   0.04  -0.13
  18   1     0.11  -0.02  -0.07     0.16  -0.07   0.04    -0.28   0.11  -0.07
  19   1    -0.03   0.02  -0.27    -0.02   0.12  -0.12     0.03  -0.22   0.19
  20   6     0.09   0.06   0.11    -0.04  -0.08   0.04     0.12   0.09  -0.08
  21   1     0.03   0.06   0.07     0.19  -0.09   0.05    -0.33   0.14  -0.09
  22   1     0.02   0.06   0.05     0.00   0.11  -0.15     0.01  -0.24   0.26
  23   6     0.01   0.18   0.18    -0.01  -0.03  -0.04     0.02   0.02   0.02
  24   1    -0.00   0.10   0.09     0.00  -0.01  -0.09    -0.01   0.02   0.18
  25   1    -0.04   0.05  -0.03     0.01   0.00  -0.03    -0.04  -0.02   0.03
  26   1    -0.01   0.09   0.08     0.05   0.03   0.04    -0.11  -0.06  -0.10
                     16                     17                     18
                        a                      a                      a 
 Frequencies --   796.4673               856.1693              1505.9644
 Red. masses --    99.0000                99.0000                99.0000
 Frc consts  --    99.0000                99.0000                99.0000
 IR Inten    --    99.0000                99.0000                99.0000
 Raman Activ --     0.0000                 0.0000                 0.0000
 Depolar     --     0.0000                 0.0000                 0.0000
 Atom AN      X      Y      Z        X      Y      Z        X      Y      Z
   1   6     0.03  -0.02  -0.01    -0.07   0.06  -0.02     0.00   0.00  -0.00
   2   1    -0.12  -0.06  -0.14     0.15   0.08   0.22    -0.01  -0.00   0.00
   3   1    -0.06   0.04  -0.01     0.08  -0.08  -0.01     0.00   0.00   0.00
   4   1    -0.01   0.14   0.13     0.01  -0.18  -0.17     0.00  -0.01   0.00
   5   6     0.15  -0.09   0.00    -0.11   0.10  -0.03    -0.00  -0.00  -0.00
   6   1    -0.28  -0.14  -0.03     0.16   0.10   0.14     0.00   0.00   0.00
   7   6     0.03  -0.02   0.01     0.13  -0.15  -0.01    -0.00  -0.00   0.00
   8   1     0.01   0.07  -0.12     0.01   0.22   0.08    -0.00   0.01  -0.00
   9   1    -0.07  -0.03   0.11    -0.20  -0.13  -0.11     0.01   0.00  -0.00
  10   6    -0.15   0.07   0.02     0.10  -0.02  -0.00    -0.00  -0.01  -0.00
  11   1    -0.03  -0.28   0.09     0.01   0.13   0.13    -0.00   0.02  -0.00
  12   1     0.25   0.12  -0.07    -0.08  -0.05  -0.21     0.02   0.01   0.00
  13   1     0.02   0.31  -0.00    -0.01  -0.19  -0.13    -0.00   0.00   0.00
  14   6    -0.11   0.13   0.03    -0.15   0.19   0.09    -0.01  -0.00   0.00
  15   1     0.27   0.12  -0.02     0.23   0.13   0.07     0.00   0.00  -0.00
  16   1    -0.03  -0.27   0.09    -0.04  -0.23  -0.04    -0.00   0.00  -0.01
  17   6     0.03   0.06  -0.04    -0.15   0.06   0.07    -0.02   0.01  -0.01
  18   1    -0.14   0.06  -0.03     0.11  -0.00   0.06     0.05  -0.03  -0.00
  19   1     0.01  -0.15   0.05    -0.04   0.03  -0.16     0.00  -0.02   0.05
  20   6     0.16  -0.02  -0.04     0.15  -0.09   0.02     0.04   0.02  -0.02
  21   1    -0.22   0.04  -0.09    -0.07  -0.09  -0.10    -0.01  -0.00  -0.02
  22   1     0.03  -0.19   0.20     0.03  -0.04   0.15     0.01   0.01   0.02
  23   6     0.02  -0.02  -0.05     0.05  -0.05  -0.10     0.17   0.08  -0.09
  24   1    -0.01   0.02   0.15    -0.01   0.05   0.17     0.03  -0.46  -0.12
  25   1    -0.06  -0.03  -0.03    -0.10  -0.05  -0.07    -0.60  -0.26   0.28
  26   1    -0.10  -0.05  -0.09    -0.11  -0.05  -0.11    -0.15   0.38   0.21
                     19                     20                     21
                        a                      a                      a 
 Frequencies --   889.1283              1508.5849               916.2361
 Red. masses --    99.0000                99.0000                99.0000
 Frc consts  --    99.0000                99.0000                99.0000
 IR Inten    --    99.0000                99.0000                99.0000
 Raman Activ --     0.0000                 0.0000                 0.0000
 Depolar     --     0.0000                 0.0000                 0.0000
 Atom AN      X      Y      Z        X      Y      Z        X      Y      Z
   1   6     0.05  -0.01   0.04     0.00   0.00  -0.00    -0.08   0.05   0.06
   2   1    -0.05  -0.03  -0.07    -0.01  -0.01   0.00     0.11   0.06   0.12
   3   1    -0.03   0.03   0.01     0.01   0.00   0.00     0.10   0.02   0.07
   4   1     0.00   0.08   0.09     0.00  -0.02   0.01     0.00  -0.12  -0.17
   5   6     0.01  -0.04   0.00     0.00   0.01  -0.00    -0.06  -0.05   0.02
   6   1    -0.03  -0.03  -0.06    -0.02  -0.01   0.00     0.00   0.00   0.15
   7   6    -0.09   0.02  -0.07     0.00   0.00  -0.00     0.17  -0.03  -0.04
   8   1    -0.02  -0.10  -0.00     0.00  -0.01   0.00     0.04   0.17  -0.07
   9   1     0.08   0.04   0.00    -0.01  -0.00   0.00    -0.13  -0.07   0.04
  10   6     0.11   0.12  -0.13     0.01   0.02  -0.00    -0.08   0.09  -0.08
  11   1     0.03   0.04  -0.13     0.00  -0.05   0.00    -0.02  -0.12   0.11
  12   1     0.01   0.03  -0.01    -0.04  -0.02  -0.00     0.12   0.07  -0.11
  13   1    -0.00   0.03   0.08     0.00  -0.02   0.00    -0.00  -0.05  -0.17
  14   6    -0.03  -0.17  -0.02     0.01  -0.00   0.00    -0.11  -0.12  -0.12
  15   1    -0.09  -0.07  -0.08    -0.01  -0.01  -0.01     0.03  -0.02  -0.21
  16   1    -0.00   0.04  -0.11     0.00  -0.01  -0.00    -0.03  -0.09   0.11
  17   6    -0.09  -0.20   0.30     0.02   0.01   0.03     0.26  -0.21   0.12
  18   1     0.29  -0.06   0.19    -0.08   0.01  -0.03    -0.03  -0.02   0.02
  19   1    -0.02   0.14  -0.18    -0.00   0.04  -0.07     0.07  -0.13   0.09
  20   6     0.00   0.17  -0.09     0.06  -0.09   0.03    -0.15   0.21  -0.10
  21   1    -0.12  -0.14  -0.23    -0.13   0.04  -0.02    -0.04   0.05  -0.03
  22   1    -0.02   0.10   0.20     0.01   0.11  -0.08    -0.03  -0.07  -0.14
  23   6     0.09   0.14  -0.02     0.11  -0.17   0.05    -0.08   0.20   0.13
  24   1    -0.00  -0.01   0.27     0.03   0.47  -0.40     0.00  -0.15  -0.17
  25   1    -0.04  -0.02   0.24     0.12  -0.01   0.30     0.18   0.09   0.35
  26   1    -0.16  -0.21  -0.28    -0.58   0.23  -0.09     0.08  -0.08  -0.02
                     22                     23                     24
                        a                      a                      a 
 Frequencies --   975.3588              1042.6805               943.1284
 Red. masses --    99.0000                99.0000                99.0000
 Frc consts  --    99.0000                99.0000                99.0000
 IR Inten    --    99.0000                99.0000                99.0000
 Raman Activ --     0.0000                 0.0000                 0.0000
 Depolar     --     0.0000                 0.0000                 0.0000
 Atom AN      X      Y      Z        X      Y      Z        X      Y      Z
   1   6    -0.12   0.07  -0.04     0.08   0.01   0.00     0.07   0.07  -0.36
   2   1     0.12   0.08   0.19    -0.05  -0.02  -0.02    -0.04   0.00   0.23
   3   1     0.07  -0.07  -0.01    -0.05  -0.02  -0.04    -0.20  -0.37  -0.40
   4   1    -0.01  -0.17  -0.18     0.01   0.07   0.12    -0.01  -0.03   0.21
   5   6     0.09  -0.04   0.01    -0.11   0.00  -0.01     0.15   0.22  -0.08
   6   1    -0.08  -0.03   0.27     0.06   0.03  -0.08     0.03   0.06   0.13
   7   6     0.06  -0.02   0.05     0.08  -0.05  -0.03    -0.19  -0.29   0.23
   8   1     0.03   0.05  -0.28     0.00   0.08   0.23    -0.05  -0.06   0.11
   9   1    -0.06  -0.02   0.29    -0.05  -0.05  -0.17    -0.06  -0.08   0.12
  10   6    -0.19   0.06   0.02    -0.02   0.10  -0.07     0.04   0.10   0.14
  11   1    -0.03  -0.18  -0.14    -0.02  -0.04   0.28     0.01   0.01   0.02
  12   1     0.12   0.08   0.17     0.07   0.04  -0.23     0.02   0.03   0.01
  13   1     0.03   0.08  -0.26    -0.03  -0.08   0.15     0.03   0.07   0.11
  14   6     0.20  -0.09  -0.02    -0.05  -0.20  -0.09     0.01  -0.00  -0.03
  15   1    -0.16  -0.08  -0.04    -0.06  -0.07  -0.31     0.00  -0.00  -0.07
  16   1     0.05   0.19   0.06    -0.02   0.01   0.31     0.00   0.00  -0.02
  17   6    -0.09   0.03  -0.05     0.13   0.01   0.07     0.03  -0.09  -0.05
  18   1     0.02  -0.05  -0.04    -0.03   0.03   0.01    -0.00  -0.02  -0.01
  19   1    -0.03   0.20   0.08     0.03   0.21   0.26     0.01  -0.05  -0.02
  20   6    -0.04  -0.02   0.02    -0.13   0.09  -0.03    -0.04   0.05  -0.04
  21   1     0.04  -0.04  -0.01     0.02   0.05   0.04    -0.02   0.02  -0.01
  22   1    -0.02   0.19   0.11    -0.04   0.22   0.07    -0.01  -0.02  -0.03
  23   6     0.11  -0.08  -0.05     0.12  -0.15  -0.00    -0.02   0.07   0.05
  24   1     0.00   0.11   0.19     0.01   0.14   0.16     0.00  -0.03  -0.03
  25   1    -0.12  -0.05  -0.16    -0.13  -0.06  -0.25     0.05   0.03   0.10
  26   1    -0.08   0.02  -0.04    -0.05   0.09   0.06     0.02  -0.02  -0.00
                     25                     26                     27
                        a                      a                      a 
 Frequencies --  1181.5022              1496.7382              1491.7097
 Red. masses --    99.0000                99.0000                99.0000
 Frc consts  --    99.0000                99.0000                99.0000
 IR Inten    --    99.0000                99.0000                99.0000
 Raman Activ --     0.0000                 0.0000                 0.0000
 Depolar     --     0.0000                 0.0000                 0.0000
 Atom AN      X      Y      Z        X      Y      Z        X      Y      Z
   1   6    -0.09   0.00   0.01    -0.00  -0.00   0.00    -0.00  -0.00  -0.00
   2   1     0.05   0.03   0.03     0.01   0.00  -0.01     0.00   0.00   0.01
   3   1     0.05   0.01   0.04    -0.01  -0.01  -0.01     0.00   0.01   0.00
   4   1    -0.01  -0.06  -0.10     0.00   0.01  -0.01    -0.00   0.00   0.00
   5   6     0.17  -0.00  -0.01    -0.02  -0.03   0.01     0.01   0.02  -0.01
   6   1    -0.06  -0.04   0.02     0.09   0.03  -0.01    -0.05  -0.02   0.01
   7   6    -0.20   0.02  -0.01     0.05   0.09   0.00    -0.04  -0.06   0.01
   8   1    -0.04  -0.13  -0.03     0.01  -0.25   0.01    -0.01   0.17  -0.02
   9   1     0.08   0.06   0.11    -0.23  -0.08  -0.01     0.16   0.06  -0.01
  10   6     0.26  -0.04  -0.04     0.02   0.02  -0.04    -0.02  -0.02   0.02
  11   1     0.06   0.16  -0.06     0.00  -0.06   0.04    -0.00   0.08  -0.00
  12   1    -0.11  -0.07   0.11    -0.06  -0.02   0.02     0.08   0.03  -0.01
  13   1     0.04   0.10  -0.05    -0.00   0.09  -0.01     0.00  -0.06   0.01
  14   6    -0.33   0.06  -0.02    -0.09  -0.13   0.02     0.12   0.14  -0.01
  15   1     0.12   0.07   0.17     0.36   0.10   0.01    -0.44  -0.13   0.01
  16   1    -0.08  -0.21  -0.04     0.00   0.38  -0.01     0.00  -0.45   0.00
  17   6     0.35  -0.07   0.04     0.12  -0.11   0.13     0.12  -0.08   0.12
  18   1    -0.08  -0.12  -0.13    -0.46   0.07  -0.11    -0.42   0.08  -0.10
  19   1     0.09  -0.13   0.15    -0.00   0.29  -0.38     0.00   0.26  -0.35
  20   6    -0.32   0.10  -0.02     0.02   0.02   0.04     0.03  -0.02   0.05
  21   1     0.08  -0.01   0.04    -0.05  -0.01  -0.03    -0.10  -0.00  -0.05
  22   1    -0.08   0.18  -0.08     0.00   0.01  -0.06     0.01   0.07  -0.09
  23   6     0.18  -0.05  -0.01     0.00   0.01  -0.01    -0.01   0.02  -0.01
  24   1     0.02   0.11   0.20    -0.00  -0.07   0.03    -0.00  -0.08   0.04
  25   1    -0.10  -0.05  -0.10    -0.05  -0.02  -0.02    -0.05  -0.01  -0.02
  26   1    -0.09   0.02  -0.04     0.05   0.00   0.02     0.06  -0.01   0.02
                     28                     29                     30
                        a                      a                      a 
 Frequencies --  1493.0133              1215.6645              1503.5364
 Red. masses --    99.0000                99.0000                99.0000
 Frc consts  --    99.0000                99.0000                99.0000
 IR Inten    --    99.0000                99.0000                99.0000
 Raman Activ --     0.0000                 0.0000                 0.0000
 Depolar     --     0.0000                 0.0000                 0.0000
 Atom AN      X      Y      Z        X      Y      Z        X      Y      Z
   1   6    -0.01  -0.01   0.00     0.23  -0.16   0.02    -0.00  -0.01  -0.01
   2   1     0.06   0.02  -0.00    -0.14  -0.11  -0.20     0.02   0.01   0.02
   3   1    -0.01  -0.01  -0.01    -0.10   0.07  -0.00    -0.00   0.01   0.00
   4   1    -0.00   0.06  -0.00     0.03   0.19   0.19    -0.00   0.03   0.01
   5   6     0.04   0.06   0.00    -0.32   0.22  -0.03     0.08   0.12  -0.00
   6   1    -0.15  -0.06  -0.01     0.17   0.15   0.10    -0.34  -0.12  -0.00
   7   6     0.01   0.02   0.03     0.23  -0.16   0.02    -0.03  -0.05  -0.00
   8   1     0.00  -0.06  -0.01     0.05   0.16  -0.11    -0.01   0.19  -0.00
   9   1    -0.06  -0.03  -0.02    -0.14  -0.10   0.12     0.18   0.07   0.01
  10   6    -0.11  -0.17  -0.01    -0.12   0.09  -0.02     0.09   0.14  -0.00
  11   1    -0.03   0.47  -0.02    -0.01  -0.09  -0.18     0.02  -0.42   0.01
  12   1     0.44   0.16   0.05     0.06   0.07   0.20    -0.40  -0.14  -0.02
  13   1     0.01  -0.16   0.00    -0.06  -0.22  -0.09     0.02  -0.36   0.02
  14   6    -0.04  -0.05  -0.02    -0.03  -0.00   0.00    -0.02  -0.03   0.02
  15   1     0.11   0.03   0.01    -0.00   0.00   0.18     0.10   0.03  -0.01
  16   1    -0.00   0.11   0.01    -0.00  -0.01  -0.19     0.00   0.11  -0.02
  17   6    -0.02   0.03  -0.00     0.12  -0.01   0.02    -0.00   0.01   0.00
  18   1     0.08  -0.02   0.02    -0.03  -0.00  -0.01     0.03  -0.02  -0.00
  19   1     0.00  -0.06   0.06     0.03  -0.14  -0.02     0.00  -0.03   0.02
  20   6     0.10  -0.08   0.12    -0.18  -0.01   0.02     0.07  -0.06   0.09
  21   1    -0.40   0.06  -0.13     0.06   0.03   0.08    -0.29   0.05  -0.09
  22   1     0.02   0.26  -0.33    -0.04   0.02  -0.11     0.01   0.19  -0.24
  23   6    -0.02  -0.01  -0.02     0.13   0.02  -0.03    -0.01   0.02  -0.02
  24   1    -0.00  -0.01   0.06     0.02   0.04   0.14    -0.00  -0.07   0.08
  25   1     0.02   0.01  -0.01    -0.06  -0.03  -0.01    -0.02  -0.00  -0.03
  26   1     0.06  -0.01   0.02    -0.07  -0.02  -0.07     0.09  -0.02   0.03
                     31                     32                     33
                        a                      a                      a 
 Frequencies --  1500.5820              1003.5039              1498.4114
 Red. masses --    99.0000                99.0000                99.0000
 Frc consts  --    99.0000                99.0000                99.0000
 IR Inten    --    99.0000                99.0000                99.0000
 Raman Activ --     0.0000                 0.0000                 0.0000
 Depolar     --     0.0000                 0.0000                 0.0000
 Atom AN      X      Y      Z        X      Y      Z        X      Y      Z
   1   6    -0.01  -0.02   0.02     0.02   0.10   0.06     0.03   0.05  -0.00
   2   1     0.07   0.03  -0.02     0.03   0.04   0.12    -0.17  -0.06   0.00
   3   1    -0.03  -0.04  -0.03    -0.00  -0.05  -0.03     0.03   0.04   0.04
   4   1    -0.00   0.08  -0.03     0.01  -0.02   0.03     0.01  -0.18   0.02
   5   6    -0.02  -0.03   0.03    -0.02  -0.10  -0.04    -0.11  -0.18  -0.02
   6   1     0.09   0.03  -0.02    -0.05  -0.04   0.10     0.47   0.18   0.03
   7   6     0.12   0.18  -0.02    -0.05  -0.07  -0.15    -0.06  -0.09  -0.02
   8   1     0.03  -0.51   0.03    -0.01  -0.03  -0.07    -0.02   0.22   0.01
   9   1    -0.48  -0.17  -0.01    -0.01  -0.01   0.10     0.21   0.07   0.03
  10   6     0.05   0.08  -0.00     0.19   0.29  -0.20     0.01   0.03   0.01
  11   1     0.01  -0.19   0.01     0.06   0.06  -0.15     0.00  -0.08  -0.00
  12   1    -0.18  -0.06  -0.01     0.06   0.09   0.03    -0.08  -0.03  -0.00
  13   1    -0.00   0.09  -0.02    -0.01   0.01  -0.02    -0.03   0.51  -0.01
  14   6     0.07   0.10   0.01    -0.20  -0.29   0.09    -0.01  -0.01   0.00
  15   1    -0.28  -0.08  -0.01    -0.07  -0.08   0.03     0.03   0.01  -0.01
  16   1    -0.00  -0.29  -0.00    -0.05  -0.05  -0.13     0.00   0.04  -0.01
  17   6    -0.02   0.04  -0.03     0.00   0.12   0.21    -0.01   0.02  -0.01
  18   1     0.11  -0.02   0.02     0.02   0.31   0.27     0.06  -0.02   0.01
  19   1     0.00  -0.08   0.09     0.00  -0.12  -0.08     0.00  -0.05   0.04
  20   6     0.05  -0.05   0.05     0.12   0.04   0.01     0.07  -0.06   0.09
  21   1    -0.20   0.04  -0.06    -0.08   0.22   0.13    -0.30   0.05  -0.10
  22   1     0.01   0.14  -0.16     0.03  -0.17  -0.00     0.01   0.20  -0.25
  23   6    -0.01   0.01  -0.01    -0.07  -0.18  -0.03    -0.01   0.00  -0.01
  24   1    -0.00  -0.04   0.04    -0.01   0.03  -0.13    -0.00  -0.02   0.06
  25   1    -0.00  -0.00  -0.01    -0.02  -0.02  -0.22     0.01   0.00  -0.01
  26   1     0.05  -0.01   0.02     0.07   0.14   0.17     0.06  -0.01   0.02
                     34                     35                     36
                        a                      a                      a 
 Frequencies --  1241.7552              1076.2695              1099.7366
 Red. masses --    99.0000                99.0000                99.0000
 Frc consts  --    99.0000                99.0000                99.0000
 IR Inten    --    99.0000                99.0000                99.0000
 Raman Activ --     0.0000                 0.0000                 0.0000
 Depolar     --     0.0000                 0.0000                 0.0000
 Atom AN      X      Y      Z        X      Y      Z        X      Y      Z
   1   6    -0.06   0.11  -0.03    -0.12  -0.21  -0.27     0.13   0.21   0.05
   2   1     0.04   0.05   0.11    -0.03  -0.06  -0.13     0.01   0.05   0.18
   3   1     0.02  -0.07  -0.04    -0.01  -0.02  -0.04    -0.05  -0.10  -0.10
   4   1    -0.01  -0.08  -0.03    -0.03  -0.06  -0.13     0.02   0.03   0.17
   5   6     0.05  -0.14   0.06     0.11   0.21   0.32    -0.11  -0.20  -0.17
   6   1    -0.05  -0.07  -0.17     0.04   0.06   0.08    -0.03  -0.05  -0.03
   7   6     0.04   0.06   0.08     0.10   0.18   0.26     0.13   0.25   0.24
   8   1     0.01   0.01  -0.01     0.03   0.06   0.06     0.03   0.06   0.23
   9   1     0.02   0.00  -0.26     0.03   0.05   0.05     0.03   0.08   0.26
  10   6    -0.10  -0.00   0.08    -0.11  -0.21  -0.24    -0.05  -0.15  -0.41
  11   1    -0.02  -0.05  -0.10    -0.03  -0.05  -0.09    -0.01  -0.03  -0.11
  12   1     0.04   0.01  -0.21    -0.04  -0.06  -0.08    -0.02  -0.04  -0.09
  13   1     0.01   0.05   0.05     0.03   0.06   0.09    -0.03  -0.04  -0.04
  14   6     0.10  -0.02   0.09    -0.08  -0.07  -0.25    -0.11  -0.10   0.04
  15   1    -0.03  -0.02  -0.18    -0.00  -0.01  -0.05    -0.02  -0.02   0.22
  16   1     0.03   0.06  -0.15    -0.02  -0.05  -0.12    -0.03  -0.05   0.11
  17   6     0.02   0.06  -0.07     0.09   0.10   0.24     0.00   0.18  -0.01
  18   1    -0.06   0.28   0.16     0.03   0.02   0.06    -0.06   0.00  -0.06
  19   1     0.01  -0.23  -0.13     0.02   0.01   0.05    -0.00   0.07   0.10
  20   6    -0.23  -0.15   0.18     0.10   0.11   0.26     0.00  -0.20  -0.03
  21   1     0.14   0.08   0.23     0.02   0.04   0.07     0.06  -0.18  -0.09
  22   1    -0.04  -0.06  -0.26     0.03   0.00   0.07     0.01  -0.05  -0.08
  23   6     0.20   0.12  -0.13    -0.10  -0.09  -0.24     0.03   0.09   0.07
  24   1     0.03   0.02   0.22    -0.02  -0.05  -0.11     0.01  -0.02   0.04
  25   1    -0.09  -0.04   0.07    -0.00  -0.02  -0.05     0.02   0.02   0.11
  26   1    -0.13  -0.10  -0.21    -0.01  -0.04  -0.07    -0.00  -0.04  -0.04
                     37                     38                     39
                        a                      a                      a 
 Frequencies --  1416.3496              1087.7976              1117.8448
 Red. masses --    99.0000                99.0000                99.0000
 Frc consts  --    99.0000                99.0000                99.0000
 IR Inten    --    99.0000                99.0000                99.0000
 Raman Activ --     0.0000                 0.0000                 0.0000
 Depolar     --     0.0000                 0.0000                 0.0000
 Atom AN      X      Y      Z        X      Y      Z        X      Y      Z
   1   6     0.10   0.20   0.37     0.11   0.19   0.15    -0.02  -0.05  -0.21
   2   1    -0.19  -0.07  -0.46     0.01   0.05   0.14    -0.03  -0.02   0.05
   3   1    -0.21  -0.36  -0.27    -0.02  -0.04  -0.03    -0.07  -0.12  -0.14
   4   1     0.06  -0.23  -0.45     0.02   0.04   0.14    -0.01  -0.05   0.04
   5   6     0.01   0.00  -0.08    -0.11  -0.20  -0.21    -0.12  -0.15   0.40
   6   1    -0.05  -0.02   0.08    -0.04  -0.05  -0.02    -0.05  -0.03   0.33
   7   6     0.01   0.02   0.00    -0.02  -0.04  -0.13     0.11   0.14  -0.43
   8   1     0.00   0.01   0.01    -0.01  -0.02   0.01     0.03   0.03  -0.15
   9   1     0.00   0.01   0.01    -0.01  -0.01   0.02     0.04   0.04  -0.12
  10   6    -0.01  -0.01   0.03     0.01   0.01   0.16     0.10   0.12   0.02
  11   1     0.00  -0.00  -0.03    -0.00   0.02   0.13     0.02   0.05   0.13
  12   1     0.00  -0.00  -0.03    -0.02   0.00   0.17     0.01   0.04   0.15
  13   1    -0.00  -0.05   0.08    -0.03  -0.05  -0.03    -0.04  -0.03   0.32
  14   6     0.00  -0.00  -0.01    -0.02  -0.01  -0.15    -0.07  -0.05   0.03
  15   1    -0.00  -0.00   0.01     0.01   0.00  -0.01    -0.01  -0.01   0.12
  16   1    -0.00   0.00   0.01    -0.00  -0.01  -0.03    -0.02  -0.02   0.06
  17   6    -0.00  -0.00   0.00     0.09   0.03   0.03     0.01   0.16  -0.05
  18   1    -0.00   0.00   0.00    -0.01  -0.14  -0.12    -0.06  -0.02  -0.08
  19   1    -0.00   0.00  -0.00     0.03  -0.02   0.06    -0.00   0.07   0.10
  20   6    -0.00   0.01   0.01     0.11   0.16   0.47     0.00  -0.18   0.01
  21   1     0.01  -0.01  -0.00     0.06   0.03   0.13     0.06  -0.13  -0.04
  22   1     0.00  -0.02  -0.00     0.03   0.10   0.13     0.01  -0.03  -0.06
  23   6    -0.02  -0.03  -0.06    -0.15  -0.03  -0.41     0.03   0.09   0.02
  24   1    -0.01   0.04   0.08    -0.03  -0.11  -0.14     0.01  -0.03   0.04
  25   1     0.04   0.00   0.08     0.01  -0.01   0.04     0.02   0.01   0.10
  26   1     0.03   0.06   0.06    -0.05  -0.13  -0.21    -0.02  -0.06  -0.07
                     40                     41                     42
                        a                      a                      a 
 Frequencies --  1148.5782              1258.7850              1130.4312
 Red. masses --    99.0000                99.0000                99.0000
 Frc consts  --    99.0000                99.0000                99.0000
 IR Inten    --    99.0000                99.0000                99.0000
 Raman Activ --     0.0000                 0.0000                 0.0000
 Depolar     --     0.0000                 0.0000                 0.0000
 Atom AN      X      Y      Z        X      Y      Z        X      Y      Z
   1   6    -0.08  -0.13   0.07    -0.17  -0.01   0.03    -0.03  -0.07  -0.05
   2   1     0.01  -0.02  -0.14     0.08   0.04   0.03    -0.01  -0.02  -0.05
   3   1     0.06   0.12   0.13     0.08   0.04   0.08     0.00   0.01   0.01
   4   1    -0.01   0.00  -0.14    -0.02  -0.07  -0.14    -0.01  -0.01  -0.04
   5   6     0.15   0.25  -0.09     0.14   0.06  -0.11     0.02   0.07   0.10
   6   1     0.05   0.06  -0.11    -0.02  -0.01  -0.08     0.02   0.02   0.03
   7   6    -0.17  -0.28   0.06     0.06  -0.12  -0.15     0.04   0.02   0.01
   8   1    -0.04  -0.05   0.02    -0.01   0.06   0.39     0.01   0.04   0.05
   9   1    -0.05  -0.07   0.00    -0.06  -0.04   0.18    -0.00   0.00   0.00
  10   6     0.13   0.27  -0.00    -0.16   0.06  -0.19     0.10   0.15  -0.26
  11   1     0.03   0.02   0.03    -0.05  -0.09   0.32     0.03   0.02  -0.15
  12   1     0.06   0.07  -0.05     0.06   0.07   0.26     0.06   0.05  -0.16
  13   1     0.04   0.05  -0.09     0.01   0.07   0.36     0.01   0.01   0.04
  14   6    -0.11  -0.26  -0.00     0.14   0.02  -0.08     0.04  -0.07   0.48
  15   1    -0.08  -0.08   0.04    -0.05  -0.02   0.30    -0.03  -0.03   0.15
  16   1    -0.03   0.00   0.09     0.03   0.06  -0.04     0.00   0.03   0.36
  17   6    -0.00   0.33  -0.08    -0.07  -0.06   0.09    -0.08  -0.27  -0.32
  18   1    -0.11   0.07  -0.06     0.07  -0.07   0.01    -0.03  -0.10  -0.10
  19   1    -0.01   0.15   0.19    -0.01  -0.05  -0.10    -0.02  -0.18  -0.13
  20   6     0.08  -0.28   0.15    -0.05   0.03  -0.03    -0.01   0.16   0.18
  21   1     0.11  -0.20  -0.03    -0.01   0.15   0.11    -0.01   0.10   0.09
  22   1     0.03  -0.06  -0.06    -0.00  -0.14  -0.13    -0.01   0.16   0.11
  23   6    -0.02   0.13  -0.06     0.09   0.01  -0.02    -0.08   0.00  -0.15
  24   1    -0.00  -0.08  -0.00     0.01   0.03   0.08    -0.02  -0.04  -0.07
  25   1     0.04   0.02   0.17    -0.03  -0.01  -0.01     0.00   0.00   0.01
  26   1    -0.02  -0.11  -0.13    -0.04  -0.01  -0.04    -0.02  -0.04  -0.07
                     43                     44                     45
                        a                      a                      a 
 Frequencies --  1267.6698              1287.6991              1292.3633
 Red. masses --    99.0000                99.0000                99.0000
 Frc consts  --    99.0000                99.0000                99.0000
 IR Inten    --    99.0000                99.0000                99.0000
 Raman Activ --     0.0000                 0.0000                 0.0000
 Depolar     --     0.0000                 0.0000                 0.0000
 Atom AN      X      Y      Z        X      Y      Z        X      Y      Z
   1   6     0.09  -0.11   0.03     0.03  -0.07   0.02     0.09  -0.02  -0.01
   2   1    -0.05  -0.05  -0.10    -0.01  -0.03  -0.05    -0.04  -0.03  -0.04
   3   1    -0.02   0.05   0.03     0.01   0.03   0.03    -0.03  -0.01  -0.03
   4   1     0.01   0.08   0.06     0.01   0.04   0.02     0.01   0.04   0.06
   5   6     0.03   0.04  -0.06     0.10  -0.03  -0.06     0.03  -0.05   0.06
   6   1    -0.02   0.02   0.40    -0.06  -0.01   0.37    -0.04  -0.01   0.21
   7   6    -0.12   0.07  -0.07    -0.08   0.05  -0.09    -0.15   0.09   0.04
   8   1    -0.04  -0.07   0.19    -0.04  -0.04   0.40    -0.03  -0.08   0.03
   9   1     0.06   0.05   0.09     0.04   0.03  -0.18     0.07   0.05  -0.21
  10   6     0.11  -0.16  -0.09    -0.13   0.04   0.00    -0.04   0.10   0.00
  11   1     0.02   0.09   0.05    -0.03  -0.07   0.09    -0.02  -0.02   0.21
  12   1    -0.10  -0.07   0.23     0.05   0.04   0.01     0.06   0.03  -0.33
  13   1     0.02  -0.00  -0.26     0.03   0.04  -0.21     0.02   0.01  -0.35
  14   6    -0.00   0.13  -0.04     0.10  -0.02  -0.02     0.06  -0.13   0.04
  15   1     0.05   0.05  -0.29    -0.02  -0.02   0.05    -0.09  -0.06   0.24
  16   1    -0.01  -0.03   0.35     0.03   0.06  -0.12     0.02   0.05  -0.18
  17   6    -0.15  -0.06  -0.00     0.12   0.10  -0.03    -0.06   0.01   0.08
  18   1     0.03   0.14   0.14    -0.06   0.20   0.09     0.06  -0.35  -0.21
  19   1    -0.04   0.09  -0.04     0.04  -0.33  -0.15    -0.02   0.09   0.03
  20   6     0.01  -0.12   0.02    -0.09   0.00   0.04     0.01   0.17   0.02
  21   1     0.00   0.23   0.22     0.06  -0.33  -0.22    -0.04   0.12   0.04
  22   1     0.01  -0.14  -0.13    -0.04   0.26   0.16     0.03  -0.32  -0.23
  23   6     0.07   0.09  -0.07    -0.06  -0.05   0.05     0.09  -0.04  -0.01
  24   1     0.01  -0.02   0.09    -0.01  -0.01  -0.07     0.02   0.04   0.05
  25   1    -0.01  -0.00   0.07     0.00  -0.00  -0.03    -0.04  -0.02  -0.08
  26   1    -0.04  -0.06  -0.10     0.03   0.03   0.07    -0.04   0.00  -0.03
                     46                     47                     48
                        a                      a                      a 
 Frequencies --  1505.0402              1285.6116              1324.8567
 Red. masses --    99.0000                99.0000                99.0000
 Frc consts  --    99.0000                99.0000                99.0000
 IR Inten    --    99.0000                99.0000                99.0000
 Raman Activ --     0.0000                 0.0000                 0.0000
 Depolar     --     0.0000                 0.0000                 0.0000
 Atom AN      X      Y      Z        X      Y      Z        X      Y      Z
   1   6     0.18  -0.12   0.01     0.03  -0.05   0.01    -0.06  -0.09   0.04
   2   1    -0.17  -0.06   0.43    -0.02  -0.02  -0.04     0.05   0.01  -0.01
   3   1    -0.60   0.39  -0.05    -0.02   0.04   0.02     0.06   0.10   0.11
   4   1     0.04   0.15  -0.44     0.00   0.04   0.01    -0.01   0.05  -0.01
   5   6     0.04  -0.03   0.00    -0.09   0.09  -0.06     0.04   0.02  -0.29
   6   1    -0.00  -0.01  -0.02     0.04   0.05   0.04    -0.02   0.02   0.35
   7   6    -0.00  -0.00  -0.00    -0.11   0.08  -0.06     0.06   0.08  -0.13
   8   1    -0.00   0.01   0.02    -0.01  -0.08  -0.33     0.00  -0.00   0.20
   9   1     0.01   0.00  -0.02     0.03   0.07   0.51    -0.02   0.02   0.18
  10   6    -0.01   0.00  -0.00     0.09  -0.12  -0.02    -0.06  -0.05   0.18
  11   1    -0.00   0.00  -0.00    -0.01   0.09   0.49     0.00   0.00  -0.26
  12   1     0.01   0.00   0.00    -0.03  -0.07  -0.37     0.03  -0.01  -0.27
  13   1     0.01   0.02   0.02    -0.02  -0.05   0.08    -0.01   0.02   0.34
  14   6    -0.00  -0.00  -0.00     0.14  -0.02   0.00    -0.07  -0.02   0.25
  15   1     0.00   0.00   0.00    -0.03  -0.03   0.01     0.02   0.00  -0.23
  16   1    -0.00   0.00   0.00     0.04   0.07  -0.05    -0.01  -0.02  -0.37
  17   6    -0.00  -0.00  -0.00     0.00   0.00  -0.05     0.05  -0.02  -0.08
  18   1    -0.00   0.00   0.00    -0.00   0.17   0.11    -0.04  -0.08  -0.10
  19   1    -0.00   0.00  -0.00     0.01  -0.15  -0.09     0.00   0.19   0.16
  20   6    -0.00   0.00  -0.00    -0.06  -0.00   0.08     0.04  -0.03  -0.01
  21   1     0.00  -0.00   0.00     0.04  -0.09  -0.03    -0.01   0.09   0.06
  22   1    -0.00  -0.00   0.00    -0.01   0.05  -0.02     0.01   0.00   0.02
  23   6     0.00  -0.00   0.00     0.01  -0.00  -0.02    -0.02   0.02  -0.02
  24   1     0.00   0.00  -0.00     0.00  -0.00   0.01    -0.00  -0.01   0.00
  25   1     0.00   0.00   0.00    -0.02  -0.01  -0.00     0.02   0.01   0.03
  26   1    -0.00   0.00  -0.00    -0.01  -0.01  -0.01     0.01  -0.01  -0.01
                     49                     50                     51
                        a                      a                      a 
 Frequencies --  1312.3297              1508.2962              1367.7972
 Red. masses --    99.0000                99.0000                99.0000
 Frc consts  --    99.0000                99.0000                99.0000
 IR Inten    --    99.0000                99.0000                99.0000
 Raman Activ --     0.0000                 0.0000                 0.0000
 Depolar     --     0.0000                 0.0000                 0.0000
 Atom AN      X      Y      Z        X      Y      Z        X      Y      Z
   1   6     0.03   0.01  -0.01    -0.10  -0.14   0.11    -0.04  -0.06   0.03
   2   1    -0.01  -0.01  -0.00     0.57   0.21  -0.11     0.05   0.01   0.02
   3   1    -0.01  -0.02  -0.03    -0.13  -0.23  -0.17     0.04   0.08   0.08
   4   1     0.01  -0.00   0.01    -0.02   0.59  -0.15    -0.01   0.06   0.02
   5   6     0.01  -0.02   0.06    -0.06  -0.08   0.05     0.00  -0.04  -0.34
   6   1    -0.01  -0.01  -0.00     0.14   0.04  -0.02     0.00   0.02   0.32
   7   6    -0.05   0.02   0.05    -0.03  -0.04  -0.02     0.01   0.05   0.24
   8   1    -0.01  -0.02  -0.00    -0.01   0.14   0.00     0.02  -0.03  -0.24
   9   1     0.03   0.01  -0.12     0.13   0.05   0.01    -0.01  -0.01  -0.25
  10   6    -0.06   0.04  -0.06     0.00   0.00   0.01     0.02   0.05   0.15
  11   1    -0.03  -0.03   0.18     0.00  -0.03  -0.00     0.02  -0.02  -0.15
  12   1     0.03   0.02  -0.07    -0.03  -0.01  -0.01    -0.01  -0.01  -0.16
  13   1     0.01   0.01  -0.15    -0.01   0.14  -0.04    -0.02   0.03   0.31
  14   6    -0.02   0.05  -0.02    -0.01  -0.01   0.00     0.01  -0.01  -0.35
  15   1     0.03   0.02   0.34     0.03   0.01  -0.00     0.01   0.00   0.36
  16   1     0.00  -0.00  -0.24     0.00   0.03  -0.00    -0.01   0.02   0.35
  17   6     0.09  -0.24  -0.09    -0.00   0.00   0.00    -0.03  -0.05   0.06
  18   1    -0.00   0.21   0.17    -0.00  -0.00  -0.00     0.03   0.08   0.09
  19   1     0.01   0.25   0.22    -0.00  -0.00  -0.00    -0.01  -0.04  -0.05
  20   6     0.05  -0.26  -0.15     0.00  -0.00   0.00    -0.02   0.01   0.00
  21   1    -0.02   0.30   0.25    -0.02   0.00  -0.00    -0.01   0.02   0.01
  22   1    -0.01   0.32   0.25     0.00   0.01  -0.01    -0.00  -0.01  -0.02
  23   6    -0.08   0.10  -0.06     0.01  -0.00  -0.00     0.01  -0.00  -0.01
  24   1    -0.01  -0.05   0.01     0.00   0.01  -0.01     0.00   0.00   0.01
  25   1     0.07   0.03   0.16    -0.00  -0.00   0.01    -0.01  -0.01   0.00
  26   1     0.05  -0.02  -0.01    -0.02   0.01   0.00    -0.01   0.01  -0.00
                     52                     53                     54
                        a                      a                      a 
 Frequencies --  1375.0768              1379.6260              1416.8757
 Red. masses --    99.0000                99.0000                99.0000
 Frc consts  --    99.0000                99.0000                99.0000
 IR Inten    --    99.0000                99.0000                99.0000
 Raman Activ --     0.0000                 0.0000                 0.0000
 Depolar     --     0.0000                 0.0000                 0.0000
 Atom AN      X      Y      Z        X      Y      Z        X      Y      Z
   1   6     0.00   0.01  -0.01    -0.01  -0.01   0.04     0.02   0.03   0.06
   2   1    -0.01  -0.00   0.00     0.02   0.01  -0.01    -0.03  -0.01  -0.08
   3   1    -0.00  -0.01  -0.01     0.01   0.01   0.02    -0.04  -0.06  -0.05
   4   1     0.00  -0.01   0.00    -0.00   0.02  -0.02     0.01  -0.04  -0.08
   5   6     0.00   0.00   0.05    -0.00  -0.03  -0.22     0.00   0.00  -0.01
   6   1    -0.00  -0.00  -0.04     0.01   0.01   0.17    -0.01  -0.00   0.01
   7   6     0.02  -0.01  -0.07    -0.02  -0.00   0.36     0.00   0.01  -0.00
   8   1    -0.00   0.01   0.08     0.01  -0.00  -0.30     0.00   0.00   0.00
   9   1    -0.01  -0.00   0.03     0.02  -0.01  -0.31     0.00   0.00   0.01
  10   6    -0.02   0.00   0.04     0.02   0.00  -0.38    -0.00  -0.00   0.01
  11   1    -0.00  -0.02  -0.06    -0.02  -0.00   0.32    -0.00   0.00  -0.01
  12   1    -0.00   0.00   0.02    -0.03   0.01   0.34     0.00  -0.00  -0.02
  13   1     0.00  -0.00  -0.04    -0.01   0.02   0.17    -0.00  -0.01   0.01
  14   6    -0.03   0.10  -0.02    -0.00   0.03   0.27    -0.01   0.00  -0.01
  15   1     0.03   0.03   0.15    -0.01   0.00  -0.21     0.01   0.00   0.02
  16   1    -0.01  -0.03  -0.04     0.01  -0.03  -0.23    -0.00   0.01  -0.01
  17   6     0.01  -0.35  -0.28     0.01  -0.02  -0.09     0.01  -0.00   0.02
  18   1     0.02   0.34   0.25    -0.00   0.00  -0.02     0.01   0.00   0.01
  19   1    -0.01   0.30   0.26     0.00   0.04   0.07     0.00  -0.00   0.01
  20   6    -0.00   0.29   0.26     0.01   0.05   0.04     0.01  -0.06  -0.04
  21   1    -0.00  -0.26  -0.22     0.01  -0.08  -0.07    -0.05   0.07   0.03
  22   1     0.02  -0.25  -0.22     0.00  -0.04  -0.02    -0.00   0.09   0.01
  23   6     0.04  -0.07   0.01    -0.00  -0.01   0.02     0.10   0.18   0.37
  24   1     0.01   0.03  -0.05     0.00   0.00  -0.03     0.05  -0.22  -0.45
  25   1    -0.04  -0.02  -0.09    -0.00   0.00  -0.03    -0.22  -0.01  -0.45
  26   1    -0.05   0.00  -0.01    -0.01  -0.01  -0.00    -0.19  -0.33  -0.33
                     55                     56                     57
                        a                      a                      a 
 Frequencies --  2954.3401              2955.5915              2955.9170
 Red. masses --    99.0000                99.0000                99.0000
 Frc consts  --    99.0000                99.0000                99.0000
 IR Inten    --    99.0000                99.0000                99.0000
 Raman Activ --     0.0000                 0.0000                 0.0000
 Depolar     --     0.0000                 0.0000                 0.0000
 Atom AN      X      Y      Z        X      Y      Z        X      Y      Z
   1   6    -0.00   0.00  -0.00     0.00  -0.00   0.00     0.01  -0.00   0.00
   2   1     0.00  -0.02  -0.00    -0.00   0.00   0.00    -0.01   0.02   0.00
   3   1    -0.00   0.00  -0.00     0.00   0.00  -0.00     0.00  -0.00   0.00
   4   1     0.02   0.00   0.00    -0.00  -0.00  -0.00    -0.02  -0.00  -0.00
   5   6     0.08  -0.06   0.01    -0.01   0.01  -0.00    -0.09   0.06  -0.01
   6   1    -0.08   0.23  -0.01     0.01  -0.02   0.00     0.09  -0.25   0.01
   7   6    -0.15   0.10  -0.01     0.01  -0.01   0.00     0.11  -0.09   0.01
   8   1     0.43   0.03   0.02    -0.03  -0.00  -0.00    -0.29  -0.02  -0.01
   9   1     0.14  -0.40   0.02    -0.02   0.04  -0.00    -0.12   0.35  -0.02
  10   6     0.12  -0.05   0.01    -0.02   0.02  -0.00     0.04  -0.02   0.00
  11   1    -0.38  -0.02  -0.02     0.07   0.01   0.00    -0.11  -0.01  -0.00
  12   1    -0.07   0.23  -0.01     0.02  -0.08   0.00    -0.03   0.09  -0.01
  13   1    -0.23  -0.02  -0.01     0.01   0.00   0.00     0.26   0.02   0.01
  14   6    -0.08   0.09  -0.00     0.10  -0.04   0.01    -0.14   0.15  -0.00
  15   1     0.09  -0.33   0.00    -0.03   0.15  -0.00     0.16  -0.55   0.00
  16   1     0.22   0.01   0.00    -0.34   0.00  -0.01     0.36   0.01   0.01
  17   6    -0.04  -0.03   0.05    -0.19  -0.10   0.13    -0.02  -0.03   0.05
  18   1     0.06   0.13  -0.17     0.16   0.35  -0.47     0.08   0.14  -0.19
  19   1     0.07  -0.00   0.00     0.54   0.01   0.02    -0.01  -0.01   0.01
  20   6     0.03   0.01  -0.01     0.08   0.03  -0.03     0.04   0.01  -0.01
  21   1    -0.02  -0.04   0.05    -0.06  -0.12   0.14    -0.02  -0.04   0.04
  22   1    -0.11  -0.00  -0.01    -0.26  -0.00  -0.02    -0.12  -0.00  -0.01
  23   6    -0.00   0.00   0.00    -0.00   0.00  -0.00    -0.00   0.00  -0.00
  24   1     0.01   0.00   0.00     0.02   0.00   0.00     0.01   0.00   0.00
  25   1     0.00  -0.00  -0.00     0.00  -0.01  -0.00     0.00  -0.00  -0.00
  26   1     0.00   0.00  -0.00     0.00   0.00  -0.01    -0.00   0.00  -0.00
                     58                     59                     60
                        a                      a                      a 
 Frequencies --  2964.5921              3028.6516              2968.0329
 Red. masses --    99.0000                99.0000                99.0000
 Frc consts  --    99.0000                99.0000                99.0000
 IR Inten    --    99.0000                99.0000                99.0000
 Raman Activ --     0.0000                 0.0000                 0.0000
 Depolar     --     0.0000                 0.0000                 0.0000
 Atom AN      X      Y      Z        X      Y      Z        X      Y      Z
   1   6     0.02  -0.01   0.00     0.25  -0.13   0.01     0.00  -0.00   0.00
   2   1    -0.02   0.05  -0.00    -0.18   0.54  -0.03    -0.00   0.00   0.00
   3   1     0.00  -0.00   0.00     0.02  -0.04   0.04     0.00  -0.00   0.00
   4   1    -0.06  -0.01  -0.00    -0.73  -0.05  -0.05    -0.01  -0.00  -0.00
   5   6    -0.18   0.10  -0.01     0.04  -0.02   0.00    -0.01   0.01  -0.00
   6   1     0.14  -0.39   0.02    -0.02   0.06  -0.01     0.02  -0.05   0.00
   7   6    -0.04   0.04  -0.00     0.01  -0.00   0.00    -0.02  -0.01  -0.00
   8   1     0.11   0.01   0.01    -0.03  -0.00  -0.00     0.10   0.00   0.00
   9   1     0.05  -0.13   0.01    -0.01   0.02  -0.00    -0.02   0.04  -0.00
  10   6     0.16  -0.04   0.01     0.00  -0.00   0.00     0.01   0.00  -0.00
  11   1    -0.54  -0.02  -0.03    -0.01  -0.00  -0.00    -0.05  -0.00  -0.00
  12   1    -0.04   0.17  -0.01    -0.00   0.01   0.00     0.00  -0.00  -0.00
  13   1     0.49   0.03   0.03    -0.09  -0.00  -0.00     0.03   0.00   0.00
  14   6     0.04  -0.08  -0.00     0.00  -0.00  -0.00     0.06   0.04   0.00
  15   1    -0.10   0.30   0.00     0.00   0.00  -0.00     0.07  -0.17   0.00
  16   1    -0.04  -0.01  -0.00    -0.00   0.00   0.00    -0.29   0.02  -0.01
  17   6    -0.02   0.02  -0.03    -0.00   0.00  -0.00    -0.00  -0.06   0.08
  18   1    -0.04  -0.07   0.10    -0.00  -0.01   0.01     0.12   0.22  -0.30
  19   1     0.13   0.01  -0.01     0.01   0.00  -0.00    -0.13  -0.01   0.01
  20   6    -0.01   0.00  -0.00    -0.00   0.00  -0.00    -0.22  -0.04   0.03
  21   1    -0.00   0.00  -0.00    -0.01  -0.01   0.01     0.03   0.11  -0.13
  22   1     0.05   0.00   0.00     0.01   0.00  -0.00     0.76   0.02   0.04
  23   6     0.00  -0.00   0.00    -0.03   0.04  -0.02     0.02   0.01  -0.01
  24   1    -0.01  -0.00  -0.00     0.13   0.01   0.01    -0.07  -0.00  -0.01
  25   1    -0.00   0.01   0.00     0.04  -0.10  -0.01     0.00   0.01  -0.00
  26   1     0.00   0.00  -0.00    -0.04  -0.05   0.07    -0.02  -0.04   0.04
                     61                     62                     63
                        a                      a                      a 
 Frequencies --  3031.1385              3026.0446              2993.1587
 Red. masses --    99.0000                99.0000                99.0000
 Frc consts  --    99.0000                99.0000                99.0000
 IR Inten    --    99.0000                99.0000                99.0000
 Raman Activ --     0.0000                 0.0000                 0.0000
 Depolar     --     0.0000                 0.0000                 0.0000
 Atom AN      X      Y      Z        X      Y      Z        X      Y      Z
   1   6    -0.11  -0.22   0.14     0.01   0.00  -0.00     0.00   0.01  -0.01
   2   1    -0.24   0.52  -0.00     0.00  -0.01  -0.00     0.02  -0.04   0.00
   3   1     0.23   0.28  -0.53    -0.00  -0.01   0.01    -0.01  -0.01   0.02
   4   1     0.39  -0.02   0.05    -0.02  -0.00  -0.00    -0.02   0.00  -0.00
   5   6    -0.01  -0.03   0.00     0.00  -0.00  -0.00    -0.01  -0.04   0.00
   6   1    -0.03   0.08  -0.01    -0.00   0.00  -0.00    -0.06   0.14  -0.01
   7   6    -0.01  -0.01   0.00    -0.00  -0.00  -0.00    -0.00  -0.05   0.00
   8   1     0.04  -0.00   0.00     0.00  -0.00   0.00     0.07  -0.00   0.00
   9   1    -0.02   0.04  -0.00    -0.00   0.00  -0.00    -0.07   0.16  -0.01
  10   6    -0.00  -0.01   0.00    -0.00  -0.01   0.00     0.01  -0.15   0.01
  11   1     0.01  -0.00   0.00     0.01  -0.00   0.00     0.20  -0.02   0.01
  12   1    -0.01   0.02  -0.00    -0.01   0.02  -0.00    -0.23   0.57  -0.03
  13   1     0.07  -0.00   0.00     0.00  -0.00   0.00     0.10  -0.00   0.00
  14   6    -0.00  -0.00   0.00    -0.00  -0.00   0.00     0.00  -0.05   0.00
  15   1    -0.00   0.01  -0.00    -0.00   0.01  -0.00    -0.06   0.17  -0.00
  16   1     0.01  -0.00  -0.00     0.01  -0.00   0.00     0.05  -0.01   0.00
  17   6    -0.00  -0.00   0.00    -0.01  -0.01   0.01    -0.01  -0.03   0.03
  18   1     0.00   0.00  -0.00     0.01   0.02  -0.03     0.05   0.09  -0.12
  19   1     0.00  -0.00   0.00     0.02  -0.00   0.00    -0.01  -0.00   0.00
  20   6    -0.00  -0.00   0.00    -0.04  -0.03   0.03    -0.01  -0.09   0.11
  21   1     0.00   0.00  -0.01     0.05   0.09  -0.10     0.22   0.35  -0.42
  22   1    -0.00  -0.00   0.00     0.06  -0.00   0.00    -0.18  -0.02   0.01
  23   6     0.00  -0.01   0.01    -0.21  -0.13   0.14     0.01   0.03  -0.02
  24   1    -0.01  -0.00   0.00     0.53  -0.01   0.06    -0.00   0.01  -0.00
  25   1    -0.00   0.00   0.00    -0.05   0.03   0.03     0.03  -0.06  -0.01
  26   1     0.01   0.02  -0.02     0.27   0.45  -0.57    -0.05  -0.07   0.09
                     64                     65                     66
                        a                      a                      a 
 Frequencies --  2978.6096              2972.1902              2987.0350
 Red. masses --    99.0000                99.0000                99.0000
 Frc consts  --    99.0000                99.0000                99.0000
 IR Inten    --    99.0000                99.0000                99.0000
 Raman Activ --     0.0000                 0.0000                 0.0000
 Depolar     --     0.0000                 0.0000                 0.0000
 Atom AN      X      Y      Z        X      Y      Z        X      Y      Z
   1   6    -0.01  -0.02   0.01     0.02  -0.01   0.00     0.01   0.01  -0.01
   2   1    -0.02   0.05   0.00    -0.02   0.06  -0.00     0.01  -0.03   0.00
   3   1     0.02   0.02  -0.04     0.01   0.00  -0.01    -0.01  -0.02   0.03
   4   1     0.05  -0.00   0.01    -0.05  -0.00  -0.00    -0.04   0.00  -0.00
   5   6     0.08   0.14  -0.00    -0.10   0.10  -0.01    -0.04  -0.05   0.00
   6   1     0.21  -0.49   0.03     0.14  -0.38   0.02    -0.08   0.19  -0.01
   7   6     0.03   0.05  -0.00    -0.12   0.09  -0.01    -0.04  -0.05  -0.00
   8   1    -0.16   0.00  -0.01     0.28   0.02   0.01     0.22  -0.00   0.01
   9   1     0.07  -0.17   0.01     0.12  -0.34   0.02    -0.08   0.18  -0.01
  10   6    -0.02  -0.06   0.00    -0.13  -0.02  -0.01    -0.04  -0.10   0.00
  11   1     0.17  -0.00   0.01     0.50   0.01   0.03     0.29  -0.01   0.02
  12   1    -0.09   0.21  -0.01    -0.05   0.07  -0.01    -0.15   0.35  -0.02
  13   1    -0.51   0.00  -0.03     0.22   0.02   0.01     0.22   0.00   0.01
  14   6    -0.07  -0.02  -0.00     0.04   0.06   0.00    -0.05  -0.03  -0.00
  15   1    -0.04   0.08   0.00     0.09  -0.24   0.00    -0.04   0.10  -0.00
  16   1     0.28  -0.01   0.01    -0.23   0.02  -0.01     0.21  -0.01   0.00
  17   6    -0.09   0.00  -0.01     0.07  -0.00   0.01    -0.03   0.01  -0.02
  18   1    -0.03  -0.03   0.04     0.02   0.02  -0.02    -0.03  -0.05   0.07
  19   1     0.34   0.01  -0.01    -0.26  -0.01   0.01     0.15   0.01  -0.00
  20   6    -0.06  -0.01   0.01     0.06   0.01  -0.01    -0.02   0.09  -0.11
  21   1     0.01   0.03  -0.03    -0.02  -0.04   0.05    -0.22  -0.35   0.42
  22   1     0.22   0.01   0.01    -0.20  -0.00  -0.01     0.30   0.02  -0.00
  23   6     0.01  -0.00  -0.00    -0.01   0.00   0.00     0.01  -0.03   0.01
  24   1    -0.05  -0.00  -0.00     0.03   0.00   0.00    -0.03  -0.01  -0.00
  25   1    -0.00   0.02   0.00     0.00  -0.01  -0.00    -0.02   0.05   0.01
  26   1    -0.00  -0.01   0.01     0.00   0.01  -0.01     0.03   0.04  -0.06
                     67                     68                     69
                        a                      a                      a 
 Frequencies --  2976.1905              2972.6107              3029.1743
 Red. masses --    99.0000                99.0000                99.0000
 Frc consts  --    99.0000                99.0000                99.0000
 IR Inten    --    99.0000                99.0000                99.0000
 Raman Activ --     0.0000                 0.0000                 0.0000
 Depolar     --     0.0000                 0.0000                 0.0000
 Atom AN      X      Y      Z        X      Y      Z        X      Y      Z
   1   6     0.00   0.00  -0.00     0.00   0.00  -0.00     0.05  -0.02  -0.00
   2   1     0.00  -0.00  -0.00     0.00  -0.01   0.00    -0.03   0.09  -0.00
   3   1    -0.00  -0.01   0.01    -0.00   0.00   0.00    -0.00  -0.01   0.02
   4   1    -0.00   0.00  -0.00     0.00   0.00   0.00    -0.16  -0.01  -0.01
   5   6    -0.04  -0.06  -0.00     0.05   0.05   0.00     0.01  -0.00   0.00
   6   1    -0.10   0.23  -0.01     0.08  -0.18   0.01    -0.00   0.01  -0.00
   7   6     0.05   0.06   0.00    -0.07  -0.13   0.00     0.00  -0.00   0.00
   8   1    -0.30  -0.00  -0.02     0.49  -0.00   0.02    -0.01  -0.00  -0.00
   9   1     0.11  -0.25   0.01    -0.21   0.49  -0.03    -0.00   0.01  -0.00
  10   6    -0.01  -0.02   0.00     0.03  -0.01   0.00     0.00  -0.00   0.00
  11   1     0.08  -0.00   0.00    -0.11  -0.00  -0.01    -0.01  -0.00  -0.00
  12   1    -0.04   0.11  -0.01    -0.00   0.02  -0.00    -0.00   0.01  -0.00
  13   1     0.23   0.00   0.01    -0.26  -0.00  -0.01    -0.02  -0.00  -0.00
  14   6     0.03   0.10  -0.00     0.06   0.06  -0.00     0.00  -0.00   0.00
  15   1     0.13  -0.38   0.00     0.08  -0.23  -0.00    -0.00   0.01  -0.00
  16   1    -0.27   0.02  -0.01    -0.32   0.02  -0.01    -0.01  -0.00  -0.00
  17   6    -0.10   0.05  -0.07    -0.02   0.05  -0.06     0.01  -0.01   0.01
  18   1    -0.13  -0.21   0.28    -0.11  -0.18   0.25     0.02   0.03  -0.03
  19   1     0.49   0.03  -0.02     0.21   0.01  -0.01    -0.05  -0.00   0.00
  20   6    -0.05  -0.02   0.03     0.02  -0.01   0.01     0.02  -0.02   0.02
  21   1     0.05   0.09  -0.11     0.02   0.03  -0.04     0.03   0.05  -0.06
  22   1     0.10   0.00   0.01    -0.10  -0.00  -0.00    -0.09  -0.00  -0.00
  23   6     0.01  -0.00   0.00    -0.00  -0.00   0.00     0.18  -0.19   0.07
  24   1    -0.04  -0.00  -0.00    -0.00   0.00   0.00    -0.66  -0.04  -0.03
  25   1    -0.00   0.01   0.00    -0.00   0.00   0.00    -0.17   0.48   0.06
  26   1     0.00   0.00   0.00     0.00   0.01  -0.01     0.18   0.22  -0.30
                     70                     71                     72
                        a                      a                      a 
 Frequencies --  2981.2303              3036.2863              3034.7975
 Red. masses --    99.0000                99.0000                99.0000
 Frc consts  --    99.0000                99.0000                99.0000
 IR Inten    --    99.0000                99.0000                99.0000
 Raman Activ --     0.0000                 0.0000                 0.0000
 Depolar     --     0.0000                 0.0000                 0.0000
 Atom AN      X      Y      Z        X      Y      Z        X      Y      Z
   1   6    -0.02  -0.00   0.00    -0.00   0.04   0.15    -0.00  -0.01  -0.01
   2   1     0.00  -0.01   0.00     0.19  -0.47   0.04    -0.02   0.04  -0.00
   3   1     0.01   0.01  -0.02     0.26   0.34  -0.57    -0.02  -0.02   0.04
   4   1     0.06   0.00   0.00    -0.44  -0.01  -0.01     0.04   0.00   0.00
   5   6     0.07   0.01   0.00     0.00   0.00   0.01    -0.00  -0.00  -0.00
   6   1     0.02  -0.02   0.00     0.00  -0.01   0.00    -0.00   0.00  -0.00
   7   6     0.11  -0.00   0.00     0.00   0.00  -0.00     0.00  -0.00   0.00
   8   1    -0.38  -0.01  -0.02    -0.01   0.00  -0.00     0.00  -0.00   0.00
   9   1     0.01   0.00  -0.00     0.00  -0.01   0.00    -0.00   0.00  -0.00
  10   6     0.11  -0.12   0.01    -0.00   0.00   0.00    -0.00  -0.00  -0.00
  11   1    -0.20  -0.02  -0.01     0.00   0.00  -0.00     0.00   0.00   0.00
  12   1    -0.17   0.46  -0.03     0.00  -0.00  -0.00    -0.00   0.00  -0.00
  13   1    -0.26  -0.01  -0.01    -0.00   0.00   0.00     0.00  -0.00   0.00
  14   6     0.12  -0.00   0.00     0.00   0.00  -0.00     0.00   0.00   0.00
  15   1     0.02  -0.02   0.00     0.00  -0.00   0.00     0.00  -0.00  -0.00
  16   1    -0.45   0.02  -0.01    -0.00   0.00  -0.00    -0.00   0.00   0.00
  17   6     0.09   0.01  -0.01    -0.00   0.00  -0.00    -0.00   0.00  -0.00
  18   1     0.01  -0.01   0.01    -0.00  -0.00   0.00    -0.00  -0.00   0.00
  19   1    -0.33  -0.01   0.00     0.00   0.00  -0.00     0.00   0.00  -0.00
  20   6     0.06   0.05  -0.06     0.00  -0.00  -0.00    -0.00  -0.01  -0.00
  21   1    -0.11  -0.19   0.23    -0.00  -0.00   0.00     0.00   0.01  -0.01
  22   1    -0.09   0.01  -0.01    -0.00   0.00  -0.00    -0.00  -0.00  -0.00
  23   6    -0.02  -0.01   0.01     0.00  -0.01  -0.01    -0.00  -0.14  -0.09
  24   1     0.04  -0.00   0.00     0.03  -0.00   0.00     0.43  -0.01   0.02
  25   1    -0.00   0.00   0.00    -0.02   0.05   0.01    -0.30   0.74   0.07
  26   1     0.02   0.03  -0.04    -0.01  -0.02   0.02    -0.13  -0.22   0.25
