> Entering Gaussian System, Link 0=g16
 Input=calc.gjf
 Output=calc.log
 Initial command:
 /share/apps/Gaussian/g16a03/g16/l1.exe "/home/ua25450/oneqbit/solution-entropy/benchmarks2/test/Gau-303370.inp" -scrdir="/home/ua25450/oneqbit/solution-entropy/benchmarks2/test/"
 Entering Link 1 = /share/apps/Gaussian/g16a03/g16/l1.exe PID=    303371.
  
 Copyright (c) 1988,1990,1992,1993,1995,1998,2003,2009,2016,
            Gaussian, Inc.  All Rights Reserved.
  
 This is part of the Gaussian(R) 16 program.  It is based on
 the Gaussian(R) 09 system (copyright 2009, Gaussian, Inc.),
 the Gaussian(R) 03 system (copyright 2003, Gaussian, Inc.),
 the Gaussian(R) 98 system (copyright 1998, Gaussian, Inc.),
 the Gaussian(R) 94 system (copyright 1995, Gaussian, Inc.),
 the Gaussian 92(TM) system (copyright 1992, Gaussian, Inc.),
 the Gaussian 90(TM) system (copyright 1990, Gaussian, Inc.),
 the Gaussian 88(TM) system (copyright 1988, Gaussian, Inc.),
 the Gaussian 86(TM) system (copyright 1986, Carnegie Mellon
 University), and the Gaussian 82(TM) system (copyright 1983,
 Carnegie Mellon University). Gaussian is a federally registered
 trademark of Gaussian, Inc.
  
 This software contains proprietary and confidential information,
 including trade secrets, belonging to Gaussian, Inc.
  
 This software is provided under written license and may be
 used, copied, transmitted, or stored only in accord with that
 written license.
  
 The following legend is applicable only to US Government
 contracts under FAR:
  
                    RESTRICTED RIGHTS LEGEND
  
 Use, reproduction and disclosure by the US Government is
 subject to restrictions as set forth in subparagraphs (a)
 and (c) of the Commercial Computer Software - Restricted
 Rights clause in FAR 52.227-19.
  
 Gaussian, Inc.
 340 Quinnipiac St., Bldg. 40, Wallingford CT 06492
  
  
 ---------------------------------------------------------------
 Warning -- This program may not be used in any manner that
 competes with the business of Gaussian, Inc. or will provide
 assistance to any competitor of Gaussian, Inc.  The licensee
 of this program is prohibited from giving any competitor of
 Gaussian, Inc. access to this program.  By using this program,
 the user acknowledges that Gaussian, Inc. is engaged in the
 business of creating and licensing software in the field of
 computational chemistry and represents and warrants to the
 licensee that it is not a competitor of Gaussian, Inc. and that
 it will not use this program in any manner prohibited above.
 ---------------------------------------------------------------
  

 Cite this work as:
 Gaussian 16, Revision A.03,
 M. J. Frisch, G. W. Trucks, H. B. Schlegel, G. E. Scuseria, 
 M. A. Robb, J. R. Cheeseman, G. Scalmani, V. Barone, 
 G. A. Petersson, H. Nakatsuji, X. Li, M. Caricato, A. V. Marenich, 
 J. Bloino, B. G. Janesko, R. Gomperts, B. Mennucci, H. P. Hratchian, 
 J. V. Ortiz, A. F. Izmaylov, J. L. Sonnenberg, D. Williams-Young, 
 F. Ding, F. Lipparini, F. Egidi, J. Goings, B. Peng, A. Petrone, 
 T. Henderson, D. Ranasinghe, V. G. Zakrzewski, J. Gao, N. Rega, 
 G. Zheng, W. Liang, M. Hada, M. Ehara, K. Toyota, R. Fukuda, 
 J. Hasegawa, M. Ishida, T. Nakajima, Y. Honda, O. Kitao, H. Nakai, 
 T. Vreven, K. Throssell, J. A. Montgomery, Jr., J. E. Peralta, 
 F. Ogliaro, M. J. Bearpark, J. J. Heyd, E. N. Brothers, K. N. Kudin, 
 V. N. Staroverov, T. A. Keith, R. Kobayashi, J. Normand, 
 K. Raghavachari, A. P. Rendell, J. C. Burant, S. S. Iyengar, 
 J. Tomasi, M. Cossi, J. M. Millam, M. Klene, C. Adamo, R. Cammi, 
 J. W. Ochterski, R. L. Martin, K. Morokuma, O. Farkas, 
 J. B. Foresman, and D. J. Fox, Gaussian, Inc., Wallingford CT, 2016.
 
 ******************************************
 Gaussian 16:  ES64L-G16RevA.03 25-Dec-2016
                 8-Nov-2018 
 ******************************************
 %chk=calc.chk
 %nprocshared=2
 Will use up to    2 processors via shared memory.
 %mem=16GB
 ----------------------------------------------------------------------
 # opt=(modredundant,loose) freq wb97xd/6-31g(d) 5d scf=(maxconventiona
 lcycles=100,xqc)
 ----------------------------------------------------------------------
 1/7=-1,18=120,19=15,26=3,38=1/1,3;
 2/9=110,12=2,17=6,18=5,40=1/2;
 3/5=1,6=6,7=1,8=1,11=2,25=1,30=1,71=1,74=-58/1,2,3;
 4//1;
 5/5=2,8=3,13=1,38=5,85=100/2,8;
 6/7=2,8=2,9=2,10=2,28=1/1;
 7//1,2,3,16;
 1/7=-1,18=20,19=15,26=3/3(2);
 2/9=110/2;
 99//99;
 2/9=110/2;
 3/5=1,6=6,7=1,8=1,11=2,25=1,30=1,71=1,74=-58/1,2,3;
 4/5=5,16=3,69=1/1;
 5/5=2,8=3,13=1,38=5,85=100/2,8;
 7//1,2,3,16;
 1/7=-1,18=20,19=15,26=3/3(-5);
 2/9=110/2;
 6/7=2,8=2,9=2,10=2,19=2,28=1/1;
 99/9=1/99;
 -------
 comment
 -------
 Symbolic Z-matrix:
 Charge =  0 Multiplicity = 2
 C                    -4.09299  -0.69422   0.19473 
 H                    -3.73634  -1.70303   0.19473 
 H                    -3.73632  -0.18982  -0.67892 
 H                    -5.16299  -0.6942    0.19473 
 O                    -3.61632  -0.02011   1.36232 
 H                    -3.93608   0.88507   1.36274 
 H                    -3.45681   0.20545  -1.36355 
 
 The following ModRedundant input section has been read:
 B       1       3 F                                                           
 B       3       7 F                                                           
 

 GradGradGradGradGradGradGradGradGradGradGradGradGradGradGradGradGradGrad
 Berny optimization.
 Initialization pass.
                           ----------------------------
                           !    Initial Parameters    !
                           ! (Angstroms and Degrees)  !
 --------------------------                            --------------------------
 ! Name  Definition              Value          Derivative Info.                !
 --------------------------------------------------------------------------------
 ! R1    R(1,2)                  1.07           estimate D2E/DX2                !
 ! R2    R(1,3)                  1.07           Frozen                          !
 ! R3    R(1,4)                  1.07           estimate D2E/DX2                !
 ! R4    R(1,5)                  1.43           estimate D2E/DX2                !
 ! R5    R(3,7)                  0.8385         Frozen                          !
 ! R6    R(5,6)                  0.96           estimate D2E/DX2                !
 ! A1    A(2,1,3)              109.4712         estimate D2E/DX2                !
 ! A2    A(2,1,4)              109.4712         estimate D2E/DX2                !
 ! A3    A(2,1,5)              109.4712         estimate D2E/DX2                !
 ! A4    A(3,1,4)              109.4712         estimate D2E/DX2                !
 ! A5    A(3,1,5)              109.4713         estimate D2E/DX2                !
 ! A6    A(4,1,5)              109.4712         estimate D2E/DX2                !
 ! A7    A(1,5,6)              109.5            estimate D2E/DX2                !
 ! A8    L(1,3,7,6,-1)         180.0            estimate D2E/DX2                !
 ! A9    L(1,3,7,6,-2)         180.0            estimate D2E/DX2                !
 ! D1    D(2,1,5,6)            179.9998         estimate D2E/DX2                !
 ! D2    D(3,1,5,6)             59.9998         estimate D2E/DX2                !
 ! D3    D(4,1,5,6)            -60.0002         estimate D2E/DX2                !
 --------------------------------------------------------------------------------
 Trust Radius=3.00D-01 FncErr=1.00D-07 GrdErr=1.00D-06 EigMax=2.50D+02 EigMin=1.00D-04
 Number of steps in this run=     28 maximum allowed number of steps=    100.
 GradGradGradGradGradGradGradGradGradGradGradGradGradGradGradGradGradGrad

                          Input orientation:                          
 ---------------------------------------------------------------------
 Center     Atomic      Atomic             Coordinates (Angstroms)
 Number     Number       Type             X           Y           Z
 ---------------------------------------------------------------------
      1          6           0       -4.092992   -0.694216    0.194734
      2          1           0       -3.736338   -1.703026    0.194734
      3          1           0       -3.736319   -0.189818   -0.678917
      4          1           0       -5.162992   -0.694203    0.194734
      5          8           0       -3.616317   -0.020114    1.362325
      6          1           0       -3.936076    0.885068    1.362741
      7          1           0       -3.456814    0.205451   -1.363550
 ---------------------------------------------------------------------
                    Distance matrix (angstroms):
                    1          2          3          4          5
     1  C    0.000000
     2  H    1.070000   0.000000
     3  H    1.070000   1.747302   0.000000
     4  H    1.070000   1.747303   1.747303   0.000000
     5  O    1.430000   2.051796   2.051796   2.051796   0.000000
     6  H    1.970533   2.846465   2.315955   2.315958   0.960000
     7  H    1.908500   2.479651   0.838500   2.479651   2.739838
                    6          7
     6  H    0.000000
     7  H    2.850304   0.000000
 Stoichiometry    CH5O(2)
 Framework group  C1[X(CH5O)]
 Deg. of freedom    15
 Full point group                 C1      NOp   1
 Largest Abelian subgroup         C1      NOp   1
 Largest concise Abelian subgroup C1      NOp   1
                         Standard orientation:                         
 ---------------------------------------------------------------------
 Center     Atomic      Atomic             Coordinates (Angstroms)
 Number     Number       Type             X           Y           Z
 ---------------------------------------------------------------------
      1          6           0       -0.573353   -0.225298    0.039969
      2          1           0       -0.892275   -0.927434   -0.701781
      3          1           0       -1.109944    0.692185   -0.083300
      4          1           0       -0.766461   -0.623294    1.014242
      5          8           0        0.828073    0.018804   -0.106044
      6          1           0        1.114658    0.648736    0.559279
      7          1           0       -1.530440    1.411166   -0.179900
 ---------------------------------------------------------------------
 Rotational constants (GHZ):          75.1457524          21.9750211          19.7128405
 Standard basis: 6-31G(d) (5D, 7F)
 There are    40 symmetry adapted cartesian basis functions of A   symmetry.
 There are    38 symmetry adapted basis functions of A   symmetry.
    38 basis functions,    76 primitive gaussians,    40 cartesian basis functions
    10 alpha electrons        9 beta electrons
       nuclear repulsion energy        44.8793438813 Hartrees.
 NAtoms=    7 NActive=    7 NUniq=    7 SFac= 1.00D+00 NAtFMM=   60 NAOKFM=F Big=F
 Integral buffers will be    131072 words long.
 Raffenetti 2 integral format.
 Two-electron integral symmetry is turned on.
 Nuclear repulsion after empirical dispersion term =       44.8779496051 Hartrees.
 One-electron integrals computed using PRISM.
 NBasis=    38 RedAO= T EigKep=  6.29D-03  NBF=    38
 NBsUse=    38 1.00D-06 EigRej= -1.00D+00 NBFU=    38
 ExpMin= 1.61D-01 ExpMax= 5.48D+03 ExpMxC= 8.25D+02 IAcc=3 IRadAn=         5 AccDes= 0.00D+00
 Harris functional with IExCor= 4639 and IRadAn=       5 diagonalized for initial guess.
 HarFok:  IExCor= 4639 AccDes= 0.00D+00 IRadAn=         5 IDoV= 1 UseB2=F ITyADJ=14
 ICtDFT=  3500011 ScaDFX=  1.000000  1.000000  1.000000  1.000000
 FoFCou: FMM=F IPFlag=           0 FMFlag=      100000 FMFlg1=           0
         NFxFlg=           0 DoJE=T BraDBF=F KetDBF=T FulRan=T
         wScrn=  0.000000 ICntrl=       500 IOpCl=  0 I1Cent=   200000004 NGrid=           0
         NMat0=    1 NMatS0=      1 NMatT0=    0 NMatD0=    1 NMtDS0=    0 NMtDT0=    0
 Petite list used in FoFCou.
 Initial guess <Sx>= 0.0000 <Sy>= 0.0000 <Sz>= 0.5000 <S**2>= 0.7500 S= 0.5000
 Keep R1 and R2 ints in memory in canonical form, NReq=2826253.
 Requested convergence on RMS density matrix=1.00D-08 within 100 cycles.
 Requested convergence on MAX density matrix=1.00D-06.
 Requested convergence on             energy=1.00D-06.
 No special actions if energy rises.
 Integral accuracy reduced to 1.0D-05 until final iterations.
 Initial convergence to 1.0D-05 achieved.  Increase integral accuracy.
 SCF Done:  E(UwB97XD) =  -116.130175438     A.U. after   16 cycles
            NFock= 16  Conv=0.51D-08     -V/T= 2.0024
 <Sx>= 0.0000 <Sy>= 0.0000 <Sz>= 0.5000 <S**2>= 0.7534 S= 0.5017
 <L.S>= 0.000000000000E+00
 Annihilation of the first spin contaminant:
 S**2 before annihilation     0.7534,   after     0.7500
 QCSCF skips out because SCF is already converged.

 **********************************************************************

            Population analysis using the SCF density.

 **********************************************************************

 Orbital symmetries:
 Alpha Orbitals:
       Occupied  (A) (A) (A) (A) (A) (A) (A) (A) (A) (A)
       Virtual   (A) (A) (A) (A) (A) (A) (A) (A) (A) (A) (A) (A)
                 (A) (A) (A) (A) (A) (A) (A) (A) (A) (A) (A) (A)
                 (A) (A) (A) (A)
 Beta  Orbitals:
       Occupied  (A) (A) (A) (A) (A) (A) (A) (A) (A)
       Virtual   (A) (A) (A) (A) (A) (A) (A) (A) (A) (A) (A) (A)
                 (A) (A) (A) (A) (A) (A) (A) (A) (A) (A) (A) (A)
                 (A) (A) (A) (A) (A)
 The electronic state is 2-A.
 Alpha  occ. eigenvalues --  -19.27098 -10.33140  -1.12497  -0.82167  -0.63878
 Alpha  occ. eigenvalues --   -0.57997  -0.52969  -0.44543  -0.38614  -0.26466
 Alpha virt. eigenvalues --    0.16214   0.22696   0.24938   0.26918   0.36957
 Alpha virt. eigenvalues --    0.61037   0.63754   0.65240   0.78750   0.89108
 Alpha virt. eigenvalues --    0.96953   0.99817   1.05428   1.07767   1.13903
 Alpha virt. eigenvalues --    1.19649   1.33030   1.55372   1.60657   1.73638
 Alpha virt. eigenvalues --    1.84465   2.14105   2.16209   2.28365   2.43699
 Alpha virt. eigenvalues --    2.47785   2.54722   2.87218
  Beta  occ. eigenvalues --  -19.26998 -10.32332  -1.12074  -0.79902  -0.61407
  Beta  occ. eigenvalues --   -0.56284  -0.52359  -0.43264  -0.37172
  Beta virt. eigenvalues --    0.02572   0.16520   0.23133   0.25604   0.27503
  Beta virt. eigenvalues --    0.39720   0.61921   0.63978   0.67636   0.82189
  Beta virt. eigenvalues --    0.89782   0.97576   1.00647   1.05910   1.08189
  Beta virt. eigenvalues --    1.18243   1.20402   1.34135   1.56839   1.61710
  Beta virt. eigenvalues --    1.74041   1.84776   2.15399   2.17425   2.29914
  Beta virt. eigenvalues --    2.44693   2.50167   2.55130   2.87903
          Condensed to atoms (all electrons):
               1          2          3          4          5          6
     1  C    5.218231   0.380888   0.228963   0.373119   0.258220  -0.032351
     2  H    0.380888   0.502708  -0.037174  -0.030231  -0.028961   0.005353
     3  H    0.228963  -0.037174   0.735982  -0.047194  -0.037701  -0.006317
     4  H    0.373119  -0.030231  -0.047194   0.566308  -0.038823  -0.003115
     5  O    0.258220  -0.028961  -0.037701  -0.038823   8.231195   0.254091
     6  H   -0.032351   0.005353  -0.006317  -0.003115   0.254091   0.357296
     7  H   -0.291886   0.010204   0.124422   0.011419   0.006856   0.002932
               7
     1  C   -0.291886
     2  H    0.010204
     3  H    0.124422
     4  H    0.011419
     5  O    0.006856
     6  H    0.002932
     7  H    1.182851
          Atomic-Atomic Spin Densities.
               1          2          3          4          5          6
     1  C    0.712503  -0.030746   0.099409  -0.038958  -0.053839  -0.006144
     2  H   -0.030746   0.000509   0.002065   0.007067   0.001202   0.000378
     3  H    0.099409   0.002065  -0.162923   0.003369   0.003319  -0.000425
     4  H   -0.038958   0.007067   0.003369   0.010413  -0.000022   0.001460
     5  O   -0.053839   0.001202   0.003319  -0.000022   0.068767  -0.000834
     6  H   -0.006144   0.000378  -0.000425   0.001460  -0.000834   0.003248
     7  H   -0.298796   0.013018  -0.074866   0.016428   0.013437   0.003270
               7
     1  C   -0.298796
     2  H    0.013018
     3  H   -0.074866
     4  H    0.016428
     5  O    0.013437
     6  H    0.003270
     7  H    1.047896
 Mulliken charges and spin densities:
               1          2
     1  C   -0.135183   0.383430
     2  H    0.197214  -0.006506
     3  H    0.039017  -0.130052
     4  H    0.168518  -0.000241
     5  O   -0.644877   0.032030
     6  H    0.422110   0.000953
     7  H   -0.046798   0.720387
 Sum of Mulliken charges =  -0.00000   1.00000
 Mulliken charges and spin densities with hydrogens summed into heavy atoms:
               1          2
     1  C    0.222767   0.967017
     5  O   -0.222767   0.032983
 Electronic spatial extent (au):  <R**2>=            104.2198
 Charge=              0.0000 electrons
 Dipole moment (field-independent basis, Debye):
    X=             -0.3572    Y=             -0.0861    Z=              1.3797  Tot=              1.4278
 Quadrupole moment (field-independent basis, Debye-Ang):
   XX=            -15.2744   YY=            -14.9180   ZZ=            -13.5454
   XY=              3.2793   XZ=              1.5018   YZ=              1.2639
 Traceless Quadrupole moment (field-independent basis, Debye-Ang):
   XX=             -0.6951   YY=             -0.3387   ZZ=              1.0338
   XY=              3.2793   XZ=              1.5018   YZ=              1.2639
 Octapole moment (field-independent basis, Debye-Ang**2):
  XXX=              8.5209  YYY=             -4.0384  ZZZ=              1.1958  XYY=              4.9638
  XXY=             -1.6790  XXZ=              2.1212  XZZ=              1.9949  YZZ=             -0.7991
  YYZ=              0.7633  XYZ=              0.4682
 Hexadecapole moment (field-independent basis, Debye-Ang**3):
 XXXX=            -81.1029 YYYY=            -43.5964 ZZZZ=            -19.6540 XXXY=             11.9108
 XXXZ=              1.6002 YYYX=             10.3143 YYYZ=              2.4332 ZZZX=              0.5612
 ZZZY=              1.3289 XXYY=            -23.1110 XXZZ=            -15.8204 YYZZ=             -9.3084
 XXYZ=              2.1770 YYXZ=              0.3622 ZZXY=              2.6741
 N-N= 4.487794960512D+01 E-N=-3.620914243741D+02  KE= 1.158490460851D+02
                          Isotropic Fermi Contact Couplings
        Atom                 a.u.       MegaHertz       Gauss      10(-4) cm-1
     1  C(13)              0.27054     304.14280     108.52571     101.45112
     2  H(1)              -0.00316     -14.13288      -5.04296      -4.71422
     3  H(1)              -0.01941     -86.76131     -30.95859     -28.94046
     4  H(1)              -0.00089      -3.96851      -1.41606      -1.32375
     5  O(17)              0.00899      -5.44710      -1.94366      -1.81696
     6  H(1)               0.00042       1.87018       0.66733       0.62383
     7  H(1)               0.22091     987.45081     352.34700     329.37813
 --------------------------------------------------------
       Center         ----  Spin Dipole Couplings  ----
                      3XX-RR        3YY-RR        3ZZ-RR
 --------------------------------------------------------
     1   Atom       -0.088812      0.340932     -0.252119
     2   Atom       -0.022479      0.022508     -0.000029
     3   Atom       -0.039304      0.184860     -0.145556
     4   Atom       -0.025624      0.000317      0.025306
     5   Atom        0.000144      0.067795     -0.067939
     6   Atom        0.008233     -0.004109     -0.004124
     7   Atom        0.002375     -0.010267      0.007892
 --------------------------------------------------------
                        XY            XZ            YZ
 --------------------------------------------------------
     1   Atom       -0.338630      0.049861     -0.084569
     2   Atom        0.000664      0.014512      0.029406
     3   Atom       -0.195282      0.026527     -0.044881
     4   Atom       -0.007672     -0.008548     -0.027182
     5   Atom       -0.155138      0.074371     -0.072804
     6   Atom        0.002878      0.010619      0.005369
     7   Atom        0.010945     -0.001490      0.002488
 --------------------------------------------------------


 ---------------------------------------------------------------------------------
              Anisotropic Spin Dipole Couplings in Principal Axis System
 ---------------------------------------------------------------------------------

       Atom             a.u.   MegaHertz   Gauss  10(-4) cm-1        Axes

              Baa    -0.2757   -37.001   -13.203   -12.342  0.8635  0.4405 -0.2458
     1 C(13)  Bbb    -0.2635   -35.364   -12.619   -11.796  0.1595  0.2239  0.9615
              Bcc     0.5393    72.366    25.822    24.139 -0.4785  0.8694 -0.1231
 
              Baa    -0.0336   -17.908    -6.390    -5.973  0.7516  0.2994 -0.5878
     2 H(1)   Bbb    -0.0104    -5.529    -1.973    -1.844  0.6456 -0.5163  0.5626
              Bcc     0.0439    23.437     8.363     7.818  0.1351  0.8024  0.5814
 
              Baa    -0.1526   -81.419   -29.052   -27.158  0.8091  0.4126 -0.4185
     3 H(1)   Bbb    -0.1514   -80.772   -28.822   -26.943  0.3122  0.3015  0.9009
              Bcc     0.3040   162.192    57.874    54.101 -0.4979  0.8596 -0.1152
 
              Baa    -0.0333   -17.773    -6.342    -5.928  0.8253  0.4568  0.3322
     4 H(1)   Bbb    -0.0096    -5.100    -1.820    -1.701 -0.5629  0.7131  0.4179
              Bcc     0.0429    22.872     8.161     7.629 -0.0460 -0.5319  0.8456
 
              Baa    -0.1300     9.406     3.356     3.138  0.7894  0.4769 -0.3866
     5 O(17)  Bbb    -0.0988     7.149     2.551     2.385  0.1245  0.4923  0.8615
              Bcc     0.2288   -16.556    -5.908    -5.522 -0.6011  0.7281 -0.3293
 
              Baa    -0.0118    -6.290    -2.244    -2.098 -0.3727 -0.4339  0.8203
     6 H(1)   Bbb    -0.0039    -2.096    -0.748    -0.699 -0.4318  0.8635  0.2605
              Bcc     0.0157     8.386     2.992     2.797  0.8214  0.2571  0.5092
 
              Baa    -0.0169    -9.030    -3.222    -3.012 -0.4967  0.8601 -0.1161
     7 H(1)   Bbb     0.0082     4.389     1.566     1.464  0.0266  0.1488  0.9885
              Bcc     0.0087     4.640     1.656     1.548  0.8675  0.4879 -0.0968
 

 ---------------------------------------------------------------------------------

 Calling FoFJK, ICntrl=      2127 FMM=F ISym2X=0 I1Cent= 0 IOpClX= 1 NMat=1 NMatS=1 NMatT=0.
 ***** Axes restored to original set *****
 -------------------------------------------------------------------
 Center     Atomic                   Forces (Hartrees/Bohr)
 Number     Number              X              Y              Z
 -------------------------------------------------------------------
      1        6          -0.024552175   -0.019238257    0.112671624
      2        1           0.010034616   -0.012195209    0.000638858
      3        1           0.005493456    0.006108589   -0.020695167
      4        1          -0.020083153    0.000164957   -0.008254644
      5        8           0.004474384   -0.017798790   -0.013938636
      6        1          -0.003770464    0.002591460   -0.003177558
      7        1           0.028403335    0.040367251   -0.067244477
 -------------------------------------------------------------------
 Cartesian Forces:  Max     0.112671624 RMS     0.032663608

 GradGradGradGradGradGradGradGradGradGradGradGradGradGradGradGradGradGrad
 Berny optimization.
 FormGI is forming the generalized inverse of G from B-inverse, IUseBI=4.
 Internal  Forces:  Max     0.105010440 RMS     0.032832891
 Search for a local minimum.
 Step number   1 out of a maximum of   28
 All quantities printed in internal units (Hartrees-Bohrs-Radians)
 Mixed Optimization -- RFO/linear search
 Second derivative matrix not updated -- first step.
 The second derivative matrix:
                          R1        R2        R3        R4        R5
           R1           0.37230
           R2           0.00000   0.37230
           R3           0.00000   0.00000   0.37230
           R4           0.00000   0.00000   0.00000   0.40989
           R5           0.00000   0.00000   0.00000   0.00000   0.28362
           R6           0.00000   0.00000   0.00000   0.00000   0.00000
           A1           0.00000   0.00000   0.00000   0.00000   0.00000
           A2           0.00000   0.00000   0.00000   0.00000   0.00000
           A3           0.00000   0.00000   0.00000   0.00000   0.00000
           A4           0.00000   0.00000   0.00000   0.00000   0.00000
           A5           0.00000   0.00000   0.00000   0.00000   0.00000
           A6           0.00000   0.00000   0.00000   0.00000   0.00000
           A7           0.00000   0.00000   0.00000   0.00000   0.00000
           A8           0.00000   0.00000   0.00000   0.00000   0.00000
           A9           0.00000   0.00000   0.00000   0.00000   0.00000
           D1           0.00000   0.00000   0.00000   0.00000   0.00000
           D2           0.00000   0.00000   0.00000   0.00000   0.00000
           D3           0.00000   0.00000   0.00000   0.00000   0.00000
                          R6        A1        A2        A3        A4
           R6           0.55473
           A1           0.00000   0.16000
           A2           0.00000   0.00000   0.16000
           A3           0.00000   0.00000   0.00000   0.16000
           A4           0.00000   0.00000   0.00000   0.00000   0.16000
           A5           0.00000   0.00000   0.00000   0.00000   0.00000
           A6           0.00000   0.00000   0.00000   0.00000   0.00000
           A7           0.00000   0.00000   0.00000   0.00000   0.00000
           A8           0.00000   0.00000   0.00000   0.00000   0.00000
           A9           0.00000   0.00000   0.00000   0.00000   0.00000
           D1           0.00000   0.00000   0.00000   0.00000   0.00000
           D2           0.00000   0.00000   0.00000   0.00000   0.00000
           D3           0.00000   0.00000   0.00000   0.00000   0.00000
                          A5        A6        A7        A8        A9
           A5           0.16000
           A6           0.00000   0.16000
           A7           0.00000   0.00000   0.16000
           A8           0.00000   0.00000   0.00000   0.00230
           A9           0.00000   0.00000   0.00000   0.00000   0.00230
           D1           0.00000   0.00000   0.00000   0.00000   0.00000
           D2           0.00000   0.00000   0.00000   0.00000   0.00000
           D3           0.00000   0.00000   0.00000   0.00000   0.00000
                          D1        D2        D3
           D1           0.01295
           D2           0.00000   0.01295
           D3           0.00000   0.00000   0.01295
 ITU=  0
     Eigenvalues ---    0.00230   0.00230   0.01295   0.10344   0.10344
     Eigenvalues ---    0.16000   0.16000   0.16000   0.16000   0.37230
     Eigenvalues ---    0.37230   0.40989   0.554731000.000001000.00000
     Eigenvalues --- 1000.000001000.000001000.00000
 RFO step:  Lambda=-5.72975056D-03 EMin= 2.30000000D-03
 Linear search not attempted -- first point.
 Maximum step size (   0.300) exceeded in Quadratic search.
    -- Step size scaled by   0.932
 Iteration  1 RMS(Cart)=  0.06935366 RMS(Int)=  0.01487545
 Iteration  2 RMS(Cart)=  0.01831372 RMS(Int)=  0.00061123
 Iteration  3 RMS(Cart)=  0.00047525 RMS(Int)=  0.00032895
 Iteration  4 RMS(Cart)=  0.00000022 RMS(Int)=  0.00032895
 Iteration  1 RMS(Cart)=  0.00000000 RMS(Int)=  0.00000000
 Variable       Old X    -DE/DX   Delta X   Delta X   Delta X     New X
                                 (Linear)    (Quad)   (Total)
    R1        2.02201   0.01484   0.00000   0.03659   0.03659   2.05860
    R2        2.02201   0.10501   0.00000   0.00000   0.00000   2.02201
    R3        2.02201   0.02008   0.00000   0.04951   0.04951   2.07152
    R4        2.70231  -0.02091   0.00000  -0.04689  -0.04689   2.65542
    R5        1.58454   0.08340   0.00000   0.00000   0.00000   1.58454
    R6        1.81414   0.00370   0.00000   0.00615   0.00615   1.82029
    A1        1.91063  -0.00310   0.00000  -0.03166  -0.03238   1.87826
    A2        1.91063   0.00211   0.00000   0.02315   0.02307   1.93370
    A3        1.91063  -0.00707   0.00000  -0.04123  -0.04161   1.86902
    A4        1.91063  -0.00555   0.00000  -0.02825  -0.02882   1.88182
    A5        1.91063   0.00104   0.00000   0.00018  -0.00045   1.91018
    A6        1.91063   0.01257   0.00000   0.07781   0.07747   1.98811
    A7        1.91114  -0.00744   0.00000  -0.04183  -0.04183   1.86931
    A8        3.14159  -0.00222   0.00000  -0.25769  -0.25769   2.88390
    A9        3.14159  -0.00065   0.00000  -0.07542  -0.07542   3.06617
    D1        3.14159  -0.00405   0.00000  -0.01709  -0.01655   3.12503
    D2        1.04719   0.00343   0.00000   0.04683   0.04666   1.09386
    D3       -1.04720   0.00189   0.00000   0.03367   0.03330  -1.01391
         Item               Value     Threshold  Converged?
 Maximum Force            0.020910     0.002500     NO 
 RMS     Force            0.009424     0.001667     NO 
 Maximum Displacement     0.200096     0.010000     NO 
 RMS     Displacement     0.084491     0.006667     NO 
 Predicted change in Energy=-3.115348D-03
 GradGradGradGradGradGradGradGradGradGradGradGradGradGradGradGradGradGrad

                          Input orientation:                          
 ---------------------------------------------------------------------
 Center     Atomic      Atomic             Coordinates (Angstroms)
 Number     Number       Type             X           Y           Z
 ---------------------------------------------------------------------
      1          6           0       -4.114973   -0.697727    0.206556
      2          1           0       -3.717960   -1.711965    0.226957
      3          1           0       -3.771750   -0.233689   -0.694424
      4          1           0       -5.210829   -0.709223    0.181580
      5          8           0       -3.577622   -0.021632    1.315024
      6          1           0       -3.916615    0.879620    1.288773
      7          1           0       -3.428100    0.283756   -1.257663
 ---------------------------------------------------------------------
                    Distance matrix (angstroms):
                    1          2          3          4          5
     1  C    0.000000
     2  H    1.089364   0.000000
     3  H    1.070000   1.742739   0.000000
     4  H    1.096201   1.798947   1.750561   0.000000
     5  O    1.405188   2.015145   2.029911   2.103531   0.000000
     6  H    1.923164   2.807709   2.278928   2.329225   0.963255
     7  H    1.891836   2.504200   0.838500   2.497109   2.595061
                    6          7
     6  H    0.000000
     7  H    2.660459   0.000000
 Stoichiometry    CH5O(2)
 Framework group  C1[X(CH5O)]
 Deg. of freedom    15
 Full point group                 C1      NOp   1
 Largest Abelian subgroup         C1      NOp   1
 Largest concise Abelian subgroup C1      NOp   1
                         Standard orientation:                         
 ---------------------------------------------------------------------
 Center     Atomic      Atomic             Coordinates (Angstroms)
 Number     Number       Type             X           Y           Z
 ---------------------------------------------------------------------
      1          6           0       -0.570736   -0.219899    0.039796
      2          1           0       -0.871183   -0.887993   -0.766490
      3          1           0       -1.095631    0.703155   -0.091947
      4          1           0       -0.857068   -0.632531    1.014169
      5          8           0        0.809548    0.002624   -0.101094
      6          1           0        1.072627    0.605331    0.602749
      7          1           0       -1.300714    1.510435   -0.188505
 ---------------------------------------------------------------------
 Rotational constants (GHZ):          71.9533696          23.0154849          20.5268270
 Standard basis: 6-31G(d) (5D, 7F)
 There are    40 symmetry adapted cartesian basis functions of A   symmetry.
 There are    38 symmetry adapted basis functions of A   symmetry.
    38 basis functions,    76 primitive gaussians,    40 cartesian basis functions
    10 alpha electrons        9 beta electrons
       nuclear repulsion energy        45.2101650341 Hartrees.
 NAtoms=    7 NActive=    7 NUniq=    7 SFac= 1.00D+00 NAtFMM=   60 NAOKFM=F Big=F
 Integral buffers will be    131072 words long.
 Raffenetti 2 integral format.
 Two-electron integral symmetry is turned on.
 Nuclear repulsion after empirical dispersion term =       45.2087400463 Hartrees.
 One-electron integrals computed using PRISM.
 NBasis=    38 RedAO= T EigKep=  7.40D-03  NBF=    38
 NBsUse=    38 1.00D-06 EigRej= -1.00D+00 NBFU=    38
 Initial guess from the checkpoint file:  "calc.chk"
 B after Tr=     0.000000   -0.000000    0.000000
         Rot=    0.999694   -0.010365    0.010488    0.019876 Ang=  -2.84 deg.
 Initial guess <Sx>= 0.0000 <Sy>= 0.0000 <Sz>= 0.5000 <S**2>= 0.7535 S= 0.5017
 ExpMin= 1.61D-01 ExpMax= 5.48D+03 ExpMxC= 8.25D+02 IAcc=2 IRadAn=         4 AccDes= 0.00D+00
 Harris functional with IExCor= 4639 and IRadAn=       4 diagonalized for initial guess.
 HarFok:  IExCor= 4639 AccDes= 0.00D+00 IRadAn=         4 IDoV= 1 UseB2=F ITyADJ=14
 ICtDFT=  3500011 ScaDFX=  1.000000  1.000000  1.000000  1.000000
 FoFCou: FMM=F IPFlag=           0 FMFlag=      100000 FMFlg1=           0
         NFxFlg=           0 DoJE=T BraDBF=F KetDBF=T FulRan=T
         wScrn=  0.000000 ICntrl=       500 IOpCl=  0 I1Cent=   200000004 NGrid=           0
         NMat0=    1 NMatS0=      1 NMatT0=    0 NMatD0=    1 NMtDS0=    0 NMtDT0=    0
 Petite list used in FoFCou.
 Keep R1 and R2 ints in memory in canonical form, NReq=2826253.
 Requested convergence on RMS density matrix=1.00D-08 within 100 cycles.
 Requested convergence on MAX density matrix=1.00D-06.
 Requested convergence on             energy=1.00D-06.
 No special actions if energy rises.
 Integral accuracy reduced to 1.0D-05 until final iterations.
 Initial convergence to 1.0D-05 achieved.  Increase integral accuracy.
 SCF Done:  E(UwB97XD) =  -116.132136618     A.U. after   15 cycles
            NFock= 15  Conv=0.53D-08     -V/T= 2.0027
 <Sx>= 0.0000 <Sy>= 0.0000 <Sz>= 0.5000 <S**2>= 0.7534 S= 0.5017
 <L.S>= 0.000000000000E+00
 Annihilation of the first spin contaminant:
 S**2 before annihilation     0.7534,   after     0.7500
 QCSCF skips out because SCF is already converged.
 Calling FoFJK, ICntrl=      2127 FMM=F ISym2X=0 I1Cent= 0 IOpClX= 1 NMat=1 NMatS=1 NMatT=0.
 ***** Axes restored to original set *****
 -------------------------------------------------------------------
 Center     Atomic                   Forces (Hartrees/Bohr)
 Number     Number              X              Y              Z
 -------------------------------------------------------------------
      1        6          -0.028936125   -0.046874744    0.097959340
      2        1          -0.000035955   -0.002033919   -0.002071916
      3        1           0.002126075    0.000220890   -0.029082188
      4        1          -0.002094395    0.000745056   -0.001194064
      5        8          -0.003928022   -0.002825763   -0.008875948
      6        1           0.000046400    0.002303633    0.002022185
      7        1           0.032822022    0.048464847   -0.058757409
 -------------------------------------------------------------------
 Cartesian Forces:  Max     0.097959340 RMS     0.031233277

 GradGradGradGradGradGradGradGradGradGradGradGradGradGradGradGradGradGrad
 Berny optimization.
 Using GEDIIS/GDIIS optimizer.
 FormGI is forming the generalized inverse of G from B-inverse, IUseBI=4.
 Internal  Forces:  Max     0.106298916 RMS     0.031889847
 Search for a local minimum.
 Step number   2 out of a maximum of   28
 All quantities printed in internal units (Hartrees-Bohrs-Radians)
 Mixed Optimization -- RFO/linear search
 Update second derivatives using D2CorX and points    1    2
 DE= -1.96D-03 DEPred=-3.12D-03 R= 6.30D-01
 TightC=F SS=  1.41D+00  RLast= 3.06D-01 DXNew= 5.0454D-01 9.1771D-01
 Trust test= 6.30D-01 RLast= 3.06D-01 DXMaxT set to 5.05D-01
 The second derivative matrix:
                          R1        R2        R3        R4        R5
           R1           0.35538
           R2          -0.00246   0.37254
           R3          -0.02217  -0.00340   0.34330
           R4           0.03259   0.00260   0.04333   0.35468
           R5           0.00109  -0.00011   0.00151  -0.00116   0.28367
           R6          -0.00734  -0.00031  -0.00984   0.01145   0.00014
           A1           0.01227   0.00036   0.01650  -0.01858  -0.00016
           A2          -0.00630  -0.00050  -0.00838   0.01065   0.00022
           A3          -0.00004   0.00202  -0.00065  -0.00713  -0.00090
           A4           0.00616   0.00079   0.00811  -0.01149  -0.00035
           A5           0.00381  -0.00036   0.00526  -0.00411   0.00016
           A6          -0.01438  -0.00234  -0.01877   0.02858   0.00104
           A7          -0.00138   0.00217  -0.00250  -0.00575  -0.00097
           A8          -0.01494   0.00166  -0.02070   0.01518  -0.00074
           A9          -0.00339   0.00039  -0.00471   0.00341  -0.00017
           D1          -0.00629   0.00069  -0.00871   0.00643  -0.00031
           D2           0.00571  -0.00075   0.00795  -0.00540   0.00033
           D3          -0.00097  -0.00003  -0.00130   0.00149   0.00002
                          R6        A1        A2        A3        A4
           R6           0.55251
           A1           0.00352   0.15449
           A2          -0.00220   0.00357   0.15795
           A3           0.00255  -0.00480   0.00141   0.16686
           A4           0.00254  -0.00422   0.00222  -0.00035   0.15777
           A5           0.00051  -0.00060   0.00078  -0.00306  -0.00123
           A6          -0.00655   0.01102  -0.00553  -0.00087   0.00528
           A7           0.00239  -0.00463   0.00114   0.00800   0.00008
           A8          -0.00164   0.00174  -0.00289   0.01291   0.00476
           A9          -0.00036   0.00037  -0.00065   0.00297   0.00108
           D1          -0.00071   0.00076  -0.00122   0.00540   0.00201
           D2           0.00048  -0.00039   0.00102  -0.00532  -0.00180
           D3          -0.00029   0.00045  -0.00029   0.00035   0.00033
                          A5        A6        A7        A8        A9
           A5           0.16052
           A6           0.00361   0.14788
           A7          -0.00327  -0.00215   0.16922
           A8          -0.00243  -0.01428   0.01388   0.01354
           A9          -0.00057  -0.00325   0.00320   0.00263   0.00291
           D1          -0.00101  -0.00601   0.00580   0.00466   0.00109
           D2           0.00110   0.00551  -0.00576  -0.00503  -0.00117
           D3           0.00006  -0.00087   0.00034  -0.00018  -0.00004
                          D1        D2        D3
           D1           0.01488
           D2          -0.00209   0.01517
           D3          -0.00008   0.00005   0.01291
 ITU=  1  0
 Use linear search instead of GDIIS.
     Eigenvalues ---    0.00230   0.00470   0.01296   0.09217   0.10480
     Eigenvalues ---    0.14926   0.16000   0.16000   0.17967   0.29518
     Eigenvalues ---    0.37232   0.39731   0.553641000.000001000.00000
     Eigenvalues --- 1000.000001000.000001000.00000
 RFO step:  Lambda=-5.23827453D-03 EMin= 2.29830462D-03
 Quartic linear search produced a step of -0.21217.
 Maximum step size (   0.505) exceeded in Quadratic search.
    -- Step size scaled by   0.754
 Iteration  1 RMS(Cart)=  0.06839047 RMS(Int)=  0.07906068
 Iteration  2 RMS(Cart)=  0.05769571 RMS(Int)=  0.03186990
 Iteration  3 RMS(Cart)=  0.03800386 RMS(Int)=  0.00249836
 Iteration  4 RMS(Cart)=  0.00240482 RMS(Int)=  0.00026872
 Iteration  5 RMS(Cart)=  0.00000172 RMS(Int)=  0.00026872
 Iteration  6 RMS(Cart)=  0.00000000 RMS(Int)=  0.00026872
 Iteration  1 RMS(Cart)=  0.00000000 RMS(Int)=  0.00000000
 Variable       Old X    -DE/DX   Delta X   Delta X   Delta X     New X
                                 (Linear)    (Quad)   (Total)
    R1        2.05860   0.00184  -0.00776   0.04476   0.03700   2.09560
    R2        2.02201   0.10630   0.00000   0.00000   0.00000   2.02201
    R3        2.07152   0.00211  -0.01051   0.05989   0.04939   2.12091
    R4        2.65542  -0.00714   0.00995  -0.06480  -0.05485   2.60057
    R5        1.58454   0.08283  -0.00000   0.00000  -0.00000   1.58454
    R6        1.82029   0.00207  -0.00130   0.00949   0.00819   1.82847
    A1        1.87826  -0.00121   0.00687  -0.04070  -0.03414   1.84411
    A2        1.93370  -0.00052  -0.00489   0.02567   0.02012   1.95382
    A3        1.86902   0.00364   0.00883  -0.03013  -0.02185   1.84717
    A4        1.88182  -0.00137   0.00611  -0.04163  -0.03560   1.84622
    A5        1.91018  -0.00084   0.00010  -0.00588  -0.00596   1.90422
    A6        1.98811   0.00021  -0.01644   0.08630   0.06946   2.05757
    A7        1.86931   0.00403   0.00888  -0.03022  -0.02134   1.84796
    A8        2.88390   0.00656   0.05468   0.47197   0.52664   3.41054
    A9        3.06617   0.00141   0.01600   0.09230   0.10830   3.17447
    D1        3.12503  -0.00041   0.00351  -0.01736  -0.01406   3.11098
    D2        1.09386  -0.00053  -0.00990   0.05019   0.04008   1.13394
    D3       -1.01391   0.00171  -0.00706   0.04974   0.04310  -0.97081
         Item               Value     Threshold  Converged?
 Maximum Force            0.007140     0.002500     NO 
 RMS     Force            0.003014     0.001667     NO 
 Maximum Displacement     0.375370     0.010000     NO 
 RMS     Displacement     0.153386     0.006667     NO 
 Predicted change in Energy=-3.334006D-03
 GradGradGradGradGradGradGradGradGradGradGradGradGradGradGradGradGradGrad

                          Input orientation:                          
 ---------------------------------------------------------------------
 Center     Atomic      Atomic             Coordinates (Angstroms)
 Number     Number       Type             X           Y           Z
 ---------------------------------------------------------------------
      1          6           0       -4.102888   -0.639525    0.233514
      2          1           0       -3.662093   -1.656043    0.187161
      3          1           0       -3.731574   -0.124166   -0.627550
      4          1           0       -5.219138   -0.660744    0.118743
      5          8           0       -3.583217   -0.056187    1.366420
      6          1           0       -3.945387    0.840687    1.392355
      7          1           0       -3.493551    0.085118   -1.403841
 ---------------------------------------------------------------------
                    Distance matrix (angstroms):
                    1          2          3          4          5
     1  C    0.000000
     2  H    1.108944   0.000000
     3  H    1.070000   1.736441   0.000000
     4  H    1.122335   1.849240   1.748633   0.000000
     5  O    1.376160   1.989073   2.000637   2.144393   0.000000
     6  H    1.886465   2.786828   2.248706   2.344958   0.967587
     7  H    1.891383   2.364600   0.838500   2.419137   2.775311
                    6          7
     6  H    0.000000
     7  H    2.931511   0.000000
 Stoichiometry    CH5O(2)
 Framework group  C1[X(CH5O)]
 Deg. of freedom    15
 Full point group                 C1      NOp   1
 Largest Abelian subgroup         C1      NOp   1
 Largest concise Abelian subgroup C1      NOp   1
                         Standard orientation:                         
 ---------------------------------------------------------------------
 Center     Atomic      Atomic             Coordinates (Angstroms)
 Number     Number       Type             X           Y           Z
 ---------------------------------------------------------------------
      1          6           0       -0.526928   -0.221602    0.049615
      2          1           0       -0.816233   -0.858746   -0.810680
      3          1           0       -1.073891    0.690286   -0.069507
      4          1           0       -0.867372   -0.656309    1.026735
      5          8           0        0.815933    0.034815   -0.107836
      6          1           0        1.062859    0.613829    0.627007
      7          1           0       -1.671263    1.262033   -0.208556
 ---------------------------------------------------------------------
 Rotational constants (GHZ):          77.8417130          22.3339248          20.6738403
 Standard basis: 6-31G(d) (5D, 7F)
 There are    40 symmetry adapted cartesian basis functions of A   symmetry.
 There are    38 symmetry adapted basis functions of A   symmetry.
    38 basis functions,    76 primitive gaussians,    40 cartesian basis functions
    10 alpha electrons        9 beta electrons
       nuclear repulsion energy        45.3964922323 Hartrees.
 NAtoms=    7 NActive=    7 NUniq=    7 SFac= 1.00D+00 NAtFMM=   60 NAOKFM=F Big=F
 Integral buffers will be    131072 words long.
 Raffenetti 2 integral format.
 Two-electron integral symmetry is turned on.
 Nuclear repulsion after empirical dispersion term =       45.3950779672 Hartrees.
 One-electron integrals computed using PRISM.
 NBasis=    38 RedAO= T EigKep=  6.46D-03  NBF=    38
 NBsUse=    38 1.00D-06 EigRej= -1.00D+00 NBFU=    38
 Initial guess from the checkpoint file:  "calc.chk"
 B after Tr=    -0.000000   -0.000000   -0.000000
         Rot=    0.999388   -0.002936   -0.001194   -0.034850 Ang=  -4.01 deg.
 Initial guess <Sx>= 0.0000 <Sy>= 0.0000 <Sz>= 0.5000 <S**2>= 0.7536 S= 0.5018
 ExpMin= 1.61D-01 ExpMax= 5.48D+03 ExpMxC= 8.25D+02 IAcc=2 IRadAn=         4 AccDes= 0.00D+00
 Harris functional with IExCor= 4639 and IRadAn=       4 diagonalized for initial guess.
 HarFok:  IExCor= 4639 AccDes= 0.00D+00 IRadAn=         4 IDoV= 1 UseB2=F ITyADJ=14
 ICtDFT=  3500011 ScaDFX=  1.000000  1.000000  1.000000  1.000000
 FoFCou: FMM=F IPFlag=           0 FMFlag=      100000 FMFlg1=           0
         NFxFlg=           0 DoJE=T BraDBF=F KetDBF=T FulRan=T
         wScrn=  0.000000 ICntrl=       500 IOpCl=  0 I1Cent=   200000004 NGrid=           0
         NMat0=    1 NMatS0=      1 NMatT0=    0 NMatD0=    1 NMtDS0=    0 NMtDT0=    0
 Petite list used in FoFCou.
 Keep R1 and R2 ints in memory in canonical form, NReq=2826253.
 Requested convergence on RMS density matrix=1.00D-08 within 100 cycles.
 Requested convergence on MAX density matrix=1.00D-06.
 Requested convergence on             energy=1.00D-06.
 No special actions if energy rises.
 Integral accuracy reduced to 1.0D-05 until final iterations.
 Initial convergence to 1.0D-05 achieved.  Increase integral accuracy.
 SCF Done:  E(UwB97XD) =  -116.129331760     A.U. after   15 cycles
            NFock= 15  Conv=0.86D-08     -V/T= 2.0026
 <Sx>= 0.0000 <Sy>= 0.0000 <Sz>= 0.5000 <S**2>= 0.7534 S= 0.5017
 <L.S>= 0.000000000000E+00
 Annihilation of the first spin contaminant:
 S**2 before annihilation     0.7534,   after     0.7500
 QCSCF skips out because SCF is already converged.
 Calling FoFJK, ICntrl=      2127 FMM=F ISym2X=0 I1Cent= 0 IOpClX= 1 NMat=1 NMatS=1 NMatT=0.
 ***** Axes restored to original set *****
 -------------------------------------------------------------------
 Center     Atomic                   Forces (Hartrees/Bohr)
 Number     Number              X              Y              Z
 -------------------------------------------------------------------
      1        6          -0.033947845   -0.066148752    0.077011571
      2        1          -0.009258006    0.007446132   -0.004126525
      3        1           0.008161586    0.017440386   -0.019428865
      4        1           0.012327676    0.000333974    0.005597093
      5        8          -0.006979053    0.014053775    0.010259467
      6        1           0.003479542   -0.000827465    0.005805347
      7        1           0.026216100    0.027701948   -0.075118087
 -------------------------------------------------------------------
 Cartesian Forces:  Max     0.077011571 RMS     0.030894694

 GradGradGradGradGradGradGradGradGradGradGradGradGradGradGradGradGradGrad
 Berny optimization.
 Using GEDIIS/GDIIS optimizer.
 FormGI is forming the generalized inverse of G from B-inverse, IUseBI=4.
 Internal  Forces:  Max     0.109764228 RMS     0.033572353
 Search for a local minimum.
 Step number   3 out of a maximum of   28
 All quantities printed in internal units (Hartrees-Bohrs-Radians)
 Mixed Optimization -- RFO/linear search
 Update second derivatives using D2CorX and points    1    3    2
 DE=  2.80D-03 DEPred=-3.33D-03 R=-8.41D-01
 Trust test=-8.41D-01 RLast= 5.55D-01 DXMaxT set to 2.52D-01
 The second derivative matrix:
                          R1        R2        R3        R4        R5
           R1           0.36583
           R2          -0.00552   0.37339
           R3          -0.00927  -0.00714   0.35920
           R4           0.01242   0.00914   0.01794   0.38689
           R5           0.00018   0.00016   0.00038   0.00053   0.28375
           R6          -0.00430  -0.00143  -0.00591   0.00814  -0.00010
           A1           0.01390   0.00004   0.01838  -0.02349  -0.00032
           A2          -0.00301  -0.00138  -0.00438   0.00348  -0.00007
           A3          -0.00694   0.00334  -0.00861   0.01390  -0.00022
           A4           0.00559   0.00118   0.00722  -0.01276  -0.00032
           A5          -0.00384   0.00203  -0.00429   0.00910   0.00081
           A6          -0.00466  -0.00491  -0.00698   0.00684   0.00016
           A7          -0.00930   0.00373  -0.01169   0.01776  -0.00019
           A8           0.00032  -0.00321  -0.00155  -0.01000  -0.00203
           A9          -0.00135  -0.00031  -0.00210   0.00060  -0.00034
           D1          -0.01011   0.00169  -0.01334   0.01512   0.00004
           D2           0.00708  -0.00104   0.00955  -0.00919   0.00020
           D3           0.00112  -0.00066   0.00129  -0.00240  -0.00017
                          R6        A1        A2        A3        A4
           R6           0.55242
           A1           0.00466   0.15428
           A2          -0.00094   0.00387   0.15888
           A3          -0.00238  -0.00384   0.00018   0.16258
           A4           0.00327  -0.00493   0.00175   0.00276   0.15696
           A5          -0.00113  -0.00220  -0.00181   0.00376  -0.00135
           A6          -0.00260   0.01175  -0.00283  -0.00389   0.00369
           A7          -0.00302  -0.00370  -0.00034   0.00380   0.00343
           A8           0.00117   0.00524   0.00244  -0.00206   0.00543
           A9          -0.00019   0.00098   0.00013   0.00033   0.00137
           D1          -0.00231   0.00050  -0.00227   0.00642   0.00268
           D2           0.00132  -0.00048   0.00131  -0.00491  -0.00228
           D3           0.00027   0.00081   0.00039  -0.00118   0.00027
                          A5        A6        A7        A8        A9
           A5           0.16576
           A6          -0.00418   0.15562
           A7           0.00441  -0.00589   0.16517
           A8          -0.01262   0.00181  -0.00290   0.03311
           A9          -0.00181  -0.00085   0.00027   0.00489   0.00312
           D1           0.00209  -0.00899   0.00710  -0.00175   0.00012
           D2          -0.00016   0.00627  -0.00539  -0.00230  -0.00071
           D3          -0.00144   0.00114  -0.00141   0.00278   0.00035
                          D1        D2        D3
           D1           0.01603
           D2          -0.00236   0.01515
           D3          -0.00087   0.00035   0.01333
 ITU= -1  1  0
 Use linear search instead of GDIIS.
     Eigenvalues ---    0.00230   0.01285   0.03176   0.09062   0.10570
     Eigenvalues ---    0.15004   0.15993   0.16179   0.17654   0.34920
     Eigenvalues ---    0.37238   0.39918   0.553071000.000001000.00000
     Eigenvalues --- 1000.000001000.000001000.00000
 RFO step:  Lambda=-7.03584112D-04 EMin= 2.29642972D-03
 Quartic linear search produced a step of -0.70024.
 Iteration  1 RMS(Cart)=  0.06041387 RMS(Int)=  0.03504084
 Iteration  2 RMS(Cart)=  0.04259375 RMS(Int)=  0.00307803
 Iteration  3 RMS(Cart)=  0.00289570 RMS(Int)=  0.00034968
 Iteration  4 RMS(Cart)=  0.00000241 RMS(Int)=  0.00034967
 Iteration  5 RMS(Cart)=  0.00000000 RMS(Int)=  0.00034967
 Iteration  1 RMS(Cart)=  0.00000000 RMS(Int)=  0.00000000
 Variable       Old X    -DE/DX   Delta X   Delta X   Delta X     New X
                                 (Linear)    (Quad)   (Total)
    R1        2.09560  -0.01033  -0.02591  -0.00206  -0.02797   2.06763
    R2        2.02201   0.10976  -0.00000   0.00000  -0.00000   2.02201
    R3        2.12091  -0.01284  -0.03458  -0.00260  -0.03718   2.08373
    R4        2.60057   0.01749   0.03841  -0.00311   0.03530   2.63586
    R5        1.58454   0.08390   0.00000   0.00000  -0.00000   1.58454
    R6        1.82847  -0.00190  -0.00573   0.00209  -0.00364   1.82483
    A1        1.84411  -0.00281   0.02391  -0.00892   0.01446   1.85857
    A2        1.95382  -0.00421  -0.01409  -0.00824  -0.02169   1.93213
    A3        1.84717   0.01038   0.01530   0.03461   0.05004   1.89721
    A4        1.84622  -0.00030   0.02493  -0.01311   0.01176   1.85798
    A5        1.90422   0.00833   0.00418   0.01104   0.01494   1.91916
    A6        2.05757  -0.01062  -0.04864  -0.01533  -0.06365   1.99392
    A7        1.84796   0.01187   0.01495   0.03675   0.05170   1.89966
    A8        3.41054  -0.01194  -0.36878   0.02335  -0.34543   3.06512
    A9        3.17447  -0.00116  -0.07584   0.13844   0.06261   3.23708
    D1        3.11098   0.00382   0.00984   0.02375   0.03453  -3.13768
    D2        1.13394  -0.00193  -0.02806   0.01171  -0.01675   1.11718
    D3       -0.97081  -0.00075  -0.03018   0.03117   0.00045  -0.97035
         Item               Value     Threshold  Converged?
 Maximum Force            0.017492     0.002500     NO 
 RMS     Force            0.008661     0.001667     NO 
 Maximum Displacement     0.258735     0.010000     NO 
 RMS     Displacement     0.095017     0.006667     NO 
 Predicted change in Energy=-9.942309D-04
 GradGradGradGradGradGradGradGradGradGradGradGradGradGradGradGradGradGrad

                          Input orientation:                          
 ---------------------------------------------------------------------
 Center     Atomic      Atomic             Coordinates (Angstroms)
 Number     Number       Type             X           Y           Z
 ---------------------------------------------------------------------
      1          6           0       -4.092431   -0.682849    0.220566
      2          1           0       -3.710127   -1.708004    0.213617
      3          1           0       -3.722641   -0.214803   -0.667740
      4          1           0       -5.192292   -0.676432    0.142306
      5          8           0       -3.594538   -0.027461    1.346685
      6          1           0       -3.933615    0.876653    1.356718
      7          1           0       -3.492205    0.222035   -1.345350
 ---------------------------------------------------------------------
                    Distance matrix (angstroms):
                    1          2          3          4          5
     1  C    0.000000
     2  H    1.094143   0.000000
     3  H    1.070000   1.733955   0.000000
     4  H    1.102660   1.807219   1.740445   0.000000
     5  O    1.394839   2.030131   2.027170   2.103451   0.000000
     6  H    1.936004   2.834975   2.309593   2.339047   0.965659
     7  H    1.905565   2.490566   0.838500   2.431184   2.705508
                    6          7
     6  H    0.000000
     7  H    2.815056   0.000000
 Stoichiometry    CH5O(2)
 Framework group  C1[X(CH5O)]
 Deg. of freedom    15
 Full point group                 C1      NOp   1
 Largest Abelian subgroup         C1      NOp   1
 Largest concise Abelian subgroup C1      NOp   1
                         Standard orientation:                         
 ---------------------------------------------------------------------
 Center     Atomic      Atomic             Coordinates (Angstroms)
 Number     Number       Type             X           Y           Z
 ---------------------------------------------------------------------
      1          6           0       -0.550603   -0.224743    0.044060
      2          1           0       -0.864064   -0.943508   -0.719005
      3          1           0       -1.102234    0.673449   -0.139934
      4          1           0       -0.843444   -0.570759    1.049235
      5          8           0        0.815261    0.016731   -0.103181
      6          1           0        1.094851    0.648299    0.571688
      7          1           0       -1.503577    1.407132   -0.200897
 ---------------------------------------------------------------------
 Rotational constants (GHZ):          74.5274832          22.5569105          20.3430393
 Standard basis: 6-31G(d) (5D, 7F)
 There are    40 symmetry adapted cartesian basis functions of A   symmetry.
 There are    38 symmetry adapted basis functions of A   symmetry.
    38 basis functions,    76 primitive gaussians,    40 cartesian basis functions
    10 alpha electrons        9 beta electrons
       nuclear repulsion energy        45.1934718573 Hartrees.
 NAtoms=    7 NActive=    7 NUniq=    7 SFac= 1.00D+00 NAtFMM=   60 NAOKFM=F Big=F
 Integral buffers will be    131072 words long.
 Raffenetti 2 integral format.
 Two-electron integral symmetry is turned on.
 Nuclear repulsion after empirical dispersion term =       45.1920599925 Hartrees.
 One-electron integrals computed using PRISM.
 NBasis=    38 RedAO= T EigKep=  6.30D-03  NBF=    38
 NBsUse=    38 1.00D-06 EigRej= -1.00D+00 NBFU=    38
 Lowest energy guess from the checkpoint file:  "calc.chk"
 B after Tr=    -0.000000   -0.000000    0.000000
         Rot=    0.999587    0.021365   -0.004154   -0.018745 Ang=   3.29 deg.
 B after Tr=    -0.000000   -0.000000    0.000000
         Rot=    0.999539    0.025477   -0.002799    0.016263 Ang=   3.48 deg.
 Initial guess <Sx>= 0.0000 <Sy>= 0.0000 <Sz>= 0.5000 <S**2>= 0.7533 S= 0.5017
 Keep R1 and R2 ints in memory in canonical form, NReq=2826253.
 Requested convergence on RMS density matrix=1.00D-08 within 100 cycles.
 Requested convergence on MAX density matrix=1.00D-06.
 Requested convergence on             energy=1.00D-06.
 No special actions if energy rises.
 Integral accuracy reduced to 1.0D-05 until final iterations.
 Initial convergence to 1.0D-05 achieved.  Increase integral accuracy.
 SCF Done:  E(UwB97XD) =  -116.132791485     A.U. after   14 cycles
            NFock= 14  Conv=0.85D-08     -V/T= 2.0027
 <Sx>= 0.0000 <Sy>= 0.0000 <Sz>= 0.5000 <S**2>= 0.7534 S= 0.5017
 <L.S>= 0.000000000000E+00
 Annihilation of the first spin contaminant:
 S**2 before annihilation     0.7534,   after     0.7500
 QCSCF skips out because SCF is already converged.
 Calling FoFJK, ICntrl=      2127 FMM=F ISym2X=0 I1Cent= 0 IOpClX= 1 NMat=1 NMatS=1 NMatT=0.
 ***** Axes restored to original set *****
 -------------------------------------------------------------------
 Center     Atomic                   Forces (Hartrees/Bohr)
 Number     Number              X              Y              Z
 -------------------------------------------------------------------
      1        6          -0.035602750   -0.046504508    0.091279122
      2        1          -0.000494741    0.001226463    0.000755527
      3        1           0.009459838    0.005513294   -0.023883206
      4        1           0.001774123   -0.000078940   -0.000274501
      5        8          -0.000153627   -0.000704746   -0.000912732
      6        1          -0.000285103   -0.001597636   -0.000543863
      7        1           0.025302260    0.042146073   -0.066420347
 -------------------------------------------------------------------
 Cartesian Forces:  Max     0.091279122 RMS     0.030308246

 GradGradGradGradGradGradGradGradGradGradGradGradGradGradGradGradGradGrad
 Berny optimization.
 Using GEDIIS/GDIIS optimizer.
 FormGI is forming the generalized inverse of G from B-inverse, IUseBI=4.
 Internal  Forces:  Max     0.107869329 RMS     0.032050475
 Search for a local minimum.
 Step number   4 out of a maximum of   28
 All quantities printed in internal units (Hartrees-Bohrs-Radians)
 Mixed Optimization -- RFO/linear search
 Update second derivatives using D2CorX and points    1    3    2    4
 DE= -6.55D-04 DEPred=-9.94D-04 R= 6.59D-01
 TightC=F SS=  1.41D+00  RLast= 2.61D-01 DXNew= 4.2426D-01 7.8421D-01
 Trust test= 6.59D-01 RLast= 2.61D-01 DXMaxT set to 4.24D-01
 The second derivative matrix:
                          R1        R2        R3        R4        R5
           R1           0.37185
           R2          -0.00833   0.37427
           R3          -0.00108  -0.01095   0.37035
           R4           0.01644   0.01072   0.02345   0.35553
           R5           0.00177  -0.00032   0.00253  -0.00149   0.28393
           R6          -0.00052  -0.00356  -0.00085   0.01314   0.00140
           A1           0.01289   0.00150   0.01708  -0.03328  -0.00161
           A2          -0.00331  -0.00103  -0.00474   0.00162  -0.00044
           A3          -0.00750   0.00131  -0.00965   0.03375   0.00222
           A4           0.00771   0.00204   0.01016  -0.02945  -0.00149
           A5          -0.00544   0.00187  -0.00648   0.01792   0.00125
           A6          -0.00259  -0.00550  -0.00405   0.00617   0.00018
           A7          -0.00857   0.00117  -0.01100   0.03733   0.00259
           A8          -0.00179  -0.00273  -0.00449  -0.00399  -0.00167
           A9           0.00822  -0.00339   0.01080  -0.00790   0.00129
           D1          -0.01305   0.00251  -0.01736   0.01777  -0.00028
           D2           0.00630  -0.00096   0.00853  -0.00597   0.00020
           D3           0.00355  -0.00164   0.00456  -0.00179   0.00050
                          R6        A1        A2        A3        A4
           R6           0.55605
           A1           0.00373   0.15264
           A2          -0.00170   0.00394   0.15915
           A3          -0.00050  -0.00081  -0.00062   0.16027
           A4           0.00554  -0.00989   0.00095   0.01232   0.14817
           A5          -0.00316   0.00095  -0.00109  -0.00281   0.00346
           A6          -0.00292   0.01205  -0.00217  -0.00750   0.00382
           A7           0.00028  -0.00154  -0.00151   0.00342   0.01269
           A8          -0.00007   0.00717   0.00261  -0.00472   0.00848
           A9           0.00907  -0.00607  -0.00211   0.01389  -0.00377
           D1          -0.00422   0.00204  -0.00204   0.00471   0.00402
           D2          -0.00020   0.00117   0.00191  -0.00905  -0.00036
           D3           0.00229  -0.00014   0.00002   0.00026   0.00048
                          A5        A6        A7        A8        A9
           A5           0.16327
           A6          -0.00380   0.15839
           A7          -0.00227  -0.00977   0.16715
           A8          -0.01457   0.00059  -0.00550   0.03152
           A9          -0.00051  -0.00116   0.01618   0.00559   0.01508
           D1           0.00152  -0.01004   0.00501  -0.00140  -0.00208
           D2          -0.00092   0.00715  -0.00985  -0.00330  -0.00148
           D3          -0.00196   0.00134   0.00068   0.00206   0.00437
                          D1        D2        D3
           D1           0.01685
           D2          -0.00261   0.01523
           D3          -0.00177  -0.00012   0.01432
 ITU=  1 -1  1  0
 Use linear search instead of GDIIS.
     Eigenvalues ---    0.00519   0.01288   0.03095   0.09101   0.10564
     Eigenvalues ---    0.13110   0.15998   0.16467   0.18082   0.35553
     Eigenvalues ---    0.37241   0.39424   0.557141000.000001000.00000
     Eigenvalues --- 1000.000001000.000001000.00000
 RFO step:  Lambda=-1.66112888D-03 EMin= 5.19346443D-03
 Quartic linear search produced a step of -0.24063.
 Maximum step size (   0.424) exceeded in Quadratic search.
    -- Step size scaled by   0.915
 Iteration  1 RMS(Cart)=  0.06898608 RMS(Int)=  0.04952554
 Iteration  2 RMS(Cart)=  0.04008405 RMS(Int)=  0.00415159
 Iteration  3 RMS(Cart)=  0.00429961 RMS(Int)=  0.00024858
 Iteration  4 RMS(Cart)=  0.00002855 RMS(Int)=  0.00024658
 Iteration  5 RMS(Cart)=  0.00000000 RMS(Int)=  0.00024658
 Iteration  1 RMS(Cart)=  0.00000000 RMS(Int)=  0.00000000
 Variable       Old X    -DE/DX   Delta X   Delta X   Delta X     New X
                                 (Linear)    (Quad)   (Total)
    R1        2.06763  -0.00133  -0.00217   0.01442   0.01225   2.07988
    R2        2.02201   0.10787  -0.00000   0.00000   0.00000   2.02201
    R3        2.08373  -0.00175  -0.00294   0.01988   0.01694   2.10067
    R4        2.63586  -0.00239   0.00471  -0.03842  -0.03371   2.60215
    R5        1.58454   0.08259   0.00000   0.00000   0.00000   1.58454
    R6        1.82483  -0.00148  -0.00109   0.00699   0.00590   1.83073
    A1        1.85857   0.00023   0.00474  -0.03869  -0.03437   1.82420
    A2        1.93213  -0.00007   0.00038  -0.00613  -0.00627   1.92587
    A3        1.89721  -0.00121  -0.00678   0.05055   0.04324   1.94044
    A4        1.85798  -0.00060   0.00574  -0.04838  -0.04272   1.81527
    A5        1.91916   0.00126  -0.00216   0.02680   0.02439   1.94355
    A6        1.99392   0.00043  -0.00140   0.01037   0.00863   2.00256
    A7        1.89966  -0.00153  -0.00730   0.05502   0.04772   1.94738
    A8        3.06512   0.00068  -0.04361   0.16727   0.12367   3.18878
    A9        3.23708  -0.00378  -0.04113  -0.37347  -0.41459   2.82249
    D1       -3.13768   0.00058  -0.00493   0.05008   0.04511  -3.09257
    D2        1.11718   0.00029  -0.00561   0.05273   0.04683   1.16401
    D3       -0.97035  -0.00014  -0.01048   0.08860   0.07845  -0.89191
         Item               Value     Threshold  Converged?
 Maximum Force            0.003781     0.002500     NO 
 RMS     Force            0.001456     0.001667     YES
 Maximum Displacement     0.226681     0.010000     NO 
 RMS     Displacement     0.101382     0.006667     NO 
 Predicted change in Energy=-1.033640D-03
 GradGradGradGradGradGradGradGradGradGradGradGradGradGradGradGradGradGrad

                          Input orientation:                          
 ---------------------------------------------------------------------
 Center     Atomic      Atomic             Coordinates (Angstroms)
 Number     Number       Type             X           Y           Z
 ---------------------------------------------------------------------
      1          6           0       -4.094373   -0.655617    0.227660
      2          1           0       -3.684333   -1.672962    0.136806
      3          1           0       -3.809290   -0.169289   -0.681797
      4          1           0       -5.204792   -0.681041    0.182544
      5          8           0       -3.577017   -0.007026    1.326658
      6          1           0       -3.966750    0.872993    1.437154
      7          1           0       -3.401293    0.102081   -1.362223
 ---------------------------------------------------------------------
                    Distance matrix (angstroms):
                    1          2          3          4          5
     1  C    0.000000
     2  H    1.100626   0.000000
     3  H    1.070000   1.716612   0.000000
     4  H    1.111625   1.815983   1.719418   0.000000
     5  O    1.376998   2.050026   2.028342   2.100701   0.000000
     6  H    1.953410   2.872725   2.366664   2.349854   0.968780
     7  H    1.892668   2.340507   0.838500   2.500438   2.696825
                    6          7
     6  H    0.000000
     7  H    2.958134   0.000000
 Stoichiometry    CH5O(2)
 Framework group  C1[X(CH5O)]
 Deg. of freedom    15
 Full point group                 C1      NOp   1
 Largest Abelian subgroup         C1      NOp   1
 Largest concise Abelian subgroup C1      NOp   1
                         Standard orientation:                         
 ---------------------------------------------------------------------
 Center     Atomic      Atomic             Coordinates (Angstroms)
 Number     Number       Type             X           Y           Z
 ---------------------------------------------------------------------
      1          6           0       -0.537545   -0.223072    0.037263
      2          1           0       -0.936792   -0.783444   -0.821784
      3          1           0       -1.110625    0.680282    0.058014
      4          1           0       -0.803961   -0.732632    0.988621
      5          8           0        0.805226    0.038402   -0.119967
      6          1           0        1.172479    0.493168    0.652592
      7          1           0       -1.537638    1.373840   -0.141283
 ---------------------------------------------------------------------
 Rotational constants (GHZ):          76.5407189          22.4646136          20.6448638
 Standard basis: 6-31G(d) (5D, 7F)
 There are    40 symmetry adapted cartesian basis functions of A   symmetry.
 There are    38 symmetry adapted basis functions of A   symmetry.
    38 basis functions,    76 primitive gaussians,    40 cartesian basis functions
    10 alpha electrons        9 beta electrons
       nuclear repulsion energy        45.3528065965 Hartrees.
 NAtoms=    7 NActive=    7 NUniq=    7 SFac= 1.00D+00 NAtFMM=   60 NAOKFM=F Big=F
 Integral buffers will be    131072 words long.
 Raffenetti 2 integral format.
 Two-electron integral symmetry is turned on.
 Nuclear repulsion after empirical dispersion term =       45.3514216658 Hartrees.
 One-electron integrals computed using PRISM.
 NBasis=    38 RedAO= T EigKep=  6.98D-03  NBF=    38
 NBsUse=    38 1.00D-06 EigRej= -1.00D+00 NBFU=    38
 Initial guess from the checkpoint file:  "calc.chk"
 B after Tr=    -0.000000   -0.000000    0.000000
         Rot=    0.997986   -0.062562   -0.010503    0.000496 Ang=  -7.27 deg.
 Initial guess <Sx>= 0.0000 <Sy>= 0.0000 <Sz>= 0.5000 <S**2>= 0.7535 S= 0.5018
 ExpMin= 1.61D-01 ExpMax= 5.48D+03 ExpMxC= 8.25D+02 IAcc=2 IRadAn=         4 AccDes= 0.00D+00
 Harris functional with IExCor= 4639 and IRadAn=       4 diagonalized for initial guess.
 HarFok:  IExCor= 4639 AccDes= 0.00D+00 IRadAn=         4 IDoV= 1 UseB2=F ITyADJ=14
 ICtDFT=  3500011 ScaDFX=  1.000000  1.000000  1.000000  1.000000
 FoFCou: FMM=F IPFlag=           0 FMFlag=      100000 FMFlg1=           0
         NFxFlg=           0 DoJE=T BraDBF=F KetDBF=T FulRan=T
         wScrn=  0.000000 ICntrl=       500 IOpCl=  0 I1Cent=   200000004 NGrid=           0
         NMat0=    1 NMatS0=      1 NMatT0=    0 NMatD0=    1 NMtDS0=    0 NMtDT0=    0
 Petite list used in FoFCou.
 Keep R1 and R2 ints in memory in canonical form, NReq=2826253.
 Requested convergence on RMS density matrix=1.00D-08 within 100 cycles.
 Requested convergence on MAX density matrix=1.00D-06.
 Requested convergence on             energy=1.00D-06.
 No special actions if energy rises.
 Integral accuracy reduced to 1.0D-05 until final iterations.
 Initial convergence to 1.0D-05 achieved.  Increase integral accuracy.
 SCF Done:  E(UwB97XD) =  -116.130845915     A.U. after   15 cycles
            NFock= 15  Conv=0.56D-08     -V/T= 2.0027
 <Sx>= 0.0000 <Sy>= 0.0000 <Sz>= 0.5000 <S**2>= 0.7534 S= 0.5017
 <L.S>= 0.000000000000E+00
 Annihilation of the first spin contaminant:
 S**2 before annihilation     0.7534,   after     0.7500
 QCSCF skips out because SCF is already converged.
 Calling FoFJK, ICntrl=      2127 FMM=F ISym2X=0 I1Cent= 0 IOpClX= 1 NMat=1 NMatS=1 NMatT=0.
 ***** Axes restored to original set *****
 -------------------------------------------------------------------
 Center     Atomic                   Forces (Hartrees/Bohr)
 Number     Number              X              Y              Z
 -------------------------------------------------------------------
      1        6          -0.046837777   -0.047597616    0.079324047
      2        1          -0.000735163    0.005738515    0.005585981
      3        1           0.000094621    0.015844491   -0.024311426
      4        1           0.005305734   -0.001797617    0.002285094
      5        8           0.007168964    0.002606123    0.010514012
      6        1          -0.000647758   -0.006452064   -0.004883041
      7        1           0.035651378    0.031658168   -0.068514667
 -------------------------------------------------------------------
 Cartesian Forces:  Max     0.079324047 RMS     0.029997729

 GradGradGradGradGradGradGradGradGradGradGradGradGradGradGradGradGradGrad
 Berny optimization.
 Using GEDIIS/GDIIS optimizer.
 FormGI is forming the generalized inverse of G from B-inverse, IUseBI=4.
 Internal  Forces:  Max     0.110351762 RMS     0.032925707
 Search for a local minimum.
 Step number   5 out of a maximum of   28
 All quantities printed in internal units (Hartrees-Bohrs-Radians)
 Mixed Optimization -- RFO/linear search
 Update second derivatives using D2CorX and points    1    3    2    5    4
 DE=  1.95D-03 DEPred=-1.03D-03 R=-1.88D+00
 Trust test=-1.88D+00 RLast= 4.55D-01 DXMaxT set to 2.12D-01
 The second derivative matrix:
                          R1        R2        R3        R4        R5
           R1           0.37376
           R2          -0.00956   0.37502
           R3          -0.00024  -0.01168   0.37022
           R4           0.00984   0.01358   0.01736   0.35814
           R5           0.00098  -0.00006   0.00172  -0.00107   0.28397
           R6           0.00261  -0.00524   0.00128   0.00367   0.00053
           A1           0.00983   0.00289   0.01433  -0.02744  -0.00116
           A2          -0.00471  -0.00033  -0.00603   0.00315  -0.00042
           A3           0.00030  -0.00216  -0.00273   0.01628   0.00091
           A4           0.00288   0.00411   0.00557  -0.02410  -0.00108
           A5          -0.00285   0.00090  -0.00349   0.01692   0.00136
           A6          -0.00409  -0.00485  -0.00555   0.00970   0.00029
           A7           0.00001  -0.00278  -0.00356   0.01799   0.00115
           A8           0.00085  -0.00377  -0.00227  -0.00705  -0.00204
           A9          -0.00190   0.00143   0.00185  -0.00212   0.00163
           D1          -0.01299   0.00264  -0.01699   0.01838  -0.00018
           D2           0.00510  -0.00019   0.00787  -0.00271   0.00045
           D3           0.00552  -0.00271   0.00599  -0.00595   0.00016
                          R6        A1        A2        A3        A4
           R6           0.55744
           A1           0.00330   0.15153
           A2          -0.00190   0.00324   0.15886
           A3          -0.00063   0.00316   0.00163   0.14652
           A4           0.00265  -0.00970   0.00047   0.01221   0.14913
           A5          -0.00330   0.00298   0.00015  -0.00880   0.00567
           A6          -0.00093   0.00897  -0.00349   0.00186   0.00158
           A7           0.00042   0.00250   0.00067  -0.01083   0.01218
           A8           0.00454   0.00354   0.00147   0.00558   0.00447
           A9          -0.00330   0.00065   0.00014  -0.00536   0.00275
           D1          -0.00527   0.00344  -0.00129   0.00091   0.00563
           D2          -0.00110   0.00163   0.00229  -0.00990   0.00093
           D3           0.00398  -0.00111  -0.00044   0.00237  -0.00144
                          A5        A6        A7        A8        A9
           A5           0.16003
           A6          -0.00060   0.15429
           A7          -0.00849   0.00012   0.15251
           A8          -0.01286  -0.00180   0.00574   0.03282
           A9          -0.00065   0.00208  -0.00598   0.00118   0.02784
           D1           0.00005  -0.00865   0.00085  -0.00118  -0.00024
           D2          -0.00108   0.00692  -0.01102  -0.00473   0.00374
           D3          -0.00166   0.00156   0.00324   0.00396  -0.00183
                          D1        D2        D3
           D1           0.01651
           D2          -0.00223   0.01590
           D3          -0.00228  -0.00098   0.01557
 ITU= -1  1 -1  1  0
 Use linear search instead of GDIIS.
     Eigenvalues ---    0.01162   0.02598   0.03101   0.09477   0.10283
     Eigenvalues ---    0.12229   0.15927   0.16035   0.16576   0.35190
     Eigenvalues ---    0.37311   0.38669   0.557701000.000001000.00000
     Eigenvalues --- 1000.000001000.000001000.00000
 RFO step:  Lambda=-2.82104734D-04 EMin= 1.16198949D-02
 Quartic linear search produced a step of -0.78270.
 Iteration  1 RMS(Cart)=  0.06276381 RMS(Int)=  0.02233665
 Iteration  2 RMS(Cart)=  0.02001425 RMS(Int)=  0.00090509
 Iteration  3 RMS(Cart)=  0.00090861 RMS(Int)=  0.00013616
 Iteration  4 RMS(Cart)=  0.00000108 RMS(Int)=  0.00013616
 Iteration  5 RMS(Cart)=  0.00000000 RMS(Int)=  0.00013616
 Iteration  1 RMS(Cart)=  0.00000000 RMS(Int)=  0.00000000
 Variable       Old X    -DE/DX   Delta X   Delta X   Delta X     New X
                                 (Linear)    (Quad)   (Total)
    R1        2.07988  -0.00604  -0.00959  -0.00641  -0.01600   2.06388
    R2        2.02201   0.11035   0.00000   0.00000   0.00000   2.02201
    R3        2.10067  -0.00535  -0.01326  -0.00702  -0.02028   2.08038
    R4        2.60215   0.00499   0.02639   0.00095   0.02734   2.62949
    R5        1.58454   0.08319  -0.00000   0.00000  -0.00000   1.58454
    R6        1.83073  -0.00633  -0.00462  -0.00472  -0.00934   1.82139
    A1        1.82420   0.00302   0.02690   0.00833   0.03513   1.85933
    A2        1.92587   0.00112   0.00490  -0.00124   0.00332   1.92919
    A3        1.94044  -0.00827  -0.03384  -0.02378  -0.05788   1.88256
    A4        1.81527   0.00362   0.03343   0.01019   0.04354   1.85881
    A5        1.94355   0.00067  -0.01909   0.00563  -0.01355   1.92999
    A6        2.00256   0.00089  -0.00676   0.00379  -0.00319   1.99937
    A7        1.94738  -0.00982  -0.03735  -0.02558  -0.06293   1.88445
    A8        3.18878  -0.00303  -0.09679   0.00779  -0.08901   3.09977
    A9        2.82249   0.00819   0.32450  -0.04666   0.27784   3.10032
    D1       -3.09257   0.00161  -0.03531   0.01413  -0.02135  -3.11392
    D2        1.16401   0.00261  -0.03665   0.01515  -0.02153   1.14248
    D3       -0.89191  -0.00319  -0.06140  -0.00475  -0.06594  -0.95785
         Item               Value     Threshold  Converged?
 Maximum Force            0.009822     0.002500     NO 
 RMS     Force            0.005096     0.001667     NO 
 Maximum Displacement     0.173306     0.010000     NO 
 RMS     Displacement     0.073022     0.006667     NO 
 Predicted change in Energy=-2.146991D-04
 GradGradGradGradGradGradGradGradGradGradGradGradGradGradGradGradGradGrad

                          Input orientation:                          
 ---------------------------------------------------------------------
 Center     Atomic      Atomic             Coordinates (Angstroms)
 Number     Number       Type             X           Y           Z
 ---------------------------------------------------------------------
      1          6           0       -4.098880   -0.670353    0.219282
      2          1           0       -3.705754   -1.689197    0.204461
      3          1           0       -3.754278   -0.197983   -0.676830
      4          1           0       -5.198383   -0.679860    0.164835
      5          8           0       -3.580959   -0.029286    1.340426
      6          1           0       -3.946666    0.862028    1.368794
      7          1           0       -3.452928    0.193791   -1.354166
 ---------------------------------------------------------------------
                    Distance matrix (angstroms):
                    1          2          3          4          5
[...]
 Principal axes and moments of inertia in atomic units:
                           1         2         3
     Eigenvalues --    28.76459  83.57588  95.80744
           X            0.99178  -0.12168   0.03955
           Y            0.12017   0.99200   0.03863
           Z           -0.04394  -0.03356   0.99847
 This molecule is an asymmetric top.
 Rotational symmetry number  1.
 Rotational temperatures (Kelvin)      3.01113     1.03635     0.90404
 Rotational constants (GHZ):          62.74178    21.59404    18.83717
    1 imaginary frequencies ignored.
 Zero-point vibrational energy     131343.5 (Joules/Mol)
                                   31.39186 (Kcal/Mol)
 Warning -- explicit consideration of   3 degrees of freedom as
           vibrations may cause significant error
 Vibrational temperatures:    461.56   563.05   842.74  1599.28  1672.27
          (Kelvin)           1713.41  1933.53  1984.20  2035.72  2048.41
                             2195.06  4408.74  4598.10  5537.94
 
 Zero-point correction=                           0.050026 (Hartree/Particle)
 Thermal correction to Energy=                    0.053836
 Thermal correction to Enthalpy=                  0.054780
 Thermal correction to Gibbs Free Energy=         0.025855
 Sum of electronic and zero-point Energies=           -116.113085
 Sum of electronic and thermal Energies=              -116.109276
 Sum of electronic and thermal Enthalpies=            -116.108331
 Sum of electronic and thermal Free Energies=         -116.137256
 
                     E (Thermal)             CV                S
                      KCal/Mol        Cal/Mol-Kelvin    Cal/Mol-Kelvin
 Total                   33.782             11.367             60.878
 Electronic               0.000              0.000              1.377
 Translational            0.889              2.981             36.416
 Rotational               0.889              2.981             20.071
 Vibrational             32.005              5.405              3.013
 Vibration     1          0.706              1.634              1.306
 Vibration     2          0.759              1.489              0.995
 Vibration     3          0.943              1.062              0.475
                       Q            Log10(Q)             Ln(Q)
 Total Bot       0.128110D-11        -11.892416        -27.383301
 Total V=0       0.131213D+12         11.117978         25.600091
 Vib (Bot)       0.157995D-22        -22.801358        -52.502066
 Vib (Bot)    1  0.585705D+00         -0.232321         -0.534940
 Vib (Bot)    2  0.458324D+00         -0.338828         -0.780180
 Vib (Bot)    3  0.258661D+00         -0.587269         -1.352237
 Vib (V=0)       0.161822D+01          0.209037          0.481326
 Vib (V=0)    1  0.127010D+01          0.103837          0.239093
 Vib (V=0)    2  0.117828D+01          0.071248          0.164054
 Vib (V=0)    3  0.106294D+01          0.026510          0.061042
 Electronic      0.200000D+01          0.301030          0.693147
 Translational   0.746271D+07          6.872896         15.825429
 Rotational      0.543269D+04          3.735015          8.600189
 ***** Axes restored to original set *****
 -------------------------------------------------------------------
 Center     Atomic                   Forces (Hartrees/Bohr)
 Number     Number              X              Y              Z
 -------------------------------------------------------------------
      1        6           0.000158327   -0.000081564    0.000021299
      2        1          -0.000000909   -0.000020777   -0.000069092
      3        1          -0.000201164    0.000008451   -0.000308847
      4        1           0.000011446    0.000065916   -0.000076665
      5        8           0.000034757    0.000119500    0.000096186
      6        1          -0.000018443    0.000008573    0.000047144
      7        1           0.000015986   -0.000100100    0.000289977
 -------------------------------------------------------------------
 Cartesian Forces:  Max     0.000308847 RMS     0.000120593
 FormGI is forming the generalized inverse of G from B-inverse, IUseBI=4.

 GradGradGradGradGradGradGradGradGradGradGradGradGradGradGradGradGradGrad
 Berny optimization.
 Internal  Forces:  Max     0.000282210 RMS     0.000108725
 Search for a saddle point.
 Step number   1 out of a maximum of    2
 All quantities printed in internal units (Hartrees-Bohrs-Radians)
 Swapping is turned off.
 Second derivative matrix not updated -- analytic derivatives used.
 The second derivative matrix:
                          R1        R2        R3        R4        R5
           R1           0.35707
           R2           0.00266   0.06921
           R3           0.00108   0.00369   0.33606
           R4           0.01056   0.02392   0.01502   0.42397
           R5           0.00035   0.08501   0.00052  -0.00406   0.04986
           R6          -0.00176  -0.00181   0.00015  -0.00027   0.00069
           A1           0.00112   0.00784  -0.00385  -0.02142  -0.00184
           A2           0.00625  -0.00778   0.00795  -0.02602   0.00241
           A3           0.00400  -0.00590  -0.00380   0.02967   0.00268
           A4          -0.00331   0.00915   0.00212  -0.02220  -0.00162
           A5          -0.00409   0.00459  -0.00432   0.00940  -0.00537
           A6          -0.00408  -0.00547   0.00143   0.02365   0.00276
           A7           0.00293   0.00031   0.00015   0.05507   0.00018
           A8           0.00085  -0.00066  -0.00036  -0.00442  -0.00006
           A9          -0.00085  -0.00048   0.00116  -0.00133  -0.00050
           D1          -0.00272   0.00900  -0.00518  -0.00432  -0.00358
           D2          -0.00412   0.00039   0.00412  -0.00099   0.00009
           D3           0.00600  -0.01114   0.00356   0.00476   0.00425
                          R6        A1        A2        A3        A4
           R6           0.53221
           A1          -0.00103   0.05188
           A2          -0.00042   0.00563   0.07284
           A3           0.00717  -0.03337  -0.04232   0.12979
           A4           0.00120   0.00460   0.00646  -0.00024   0.05360
           A5          -0.00173  -0.02070   0.00393  -0.02278  -0.02495
           A6          -0.00528  -0.00087  -0.03940  -0.04013  -0.03450
           A7           0.01936  -0.00496  -0.00597   0.01895   0.00041
           A8           0.00042   0.00440   0.00089   0.00063   0.00217
           A9          -0.00003  -0.00060   0.00012   0.00020   0.00258
           D1           0.00095   0.01850  -0.01543  -0.00080   0.00335
           D2          -0.00101  -0.01317   0.00024  -0.02337   0.01193
           D3           0.00232  -0.00333   0.01590   0.02117  -0.01578
                          A5        A6        A7        A8        A9
           A5           0.09539
           A6          -0.02598   0.12865
           A7          -0.00253  -0.00706   0.19095
           A8          -0.00864   0.00063  -0.00006   0.02399
           A9          -0.00226  -0.00011  -0.00018  -0.00085   0.01609
           D1           0.01706  -0.01787  -0.00025  -0.00078  -0.00073
           D2           0.00185   0.02118  -0.00389  -0.00162   0.00115
           D3          -0.01814  -0.00289   0.00227   0.00149  -0.00048
                          D1        D2        D3
           D1           0.02450
           D2          -0.00698   0.02155
           D3          -0.01166  -0.00981   0.02604
 ITU=  0
     Eigenvalues ---   -0.03102   0.00503   0.01572   0.02293   0.06311
     Eigenvalues ---    0.07881   0.11054   0.14448   0.15475   0.16384
     Eigenvalues ---    0.19841   0.33543   0.35654   0.45132   0.53376
 Eigenvectors required to have negative eigenvalues:
                          R5        R2        D3        A4        A2
   1                    0.72059  -0.66515  -0.10711   0.07415  -0.07262
                          A1        D1        R4        A3        A6
   1                    0.06423   0.06312   0.05046  -0.04260  -0.04245
 Angle between quadratic step and forces=  69.52 degrees.
 Linear search not attempted -- option 19 set.
 Iteration  1 RMS(Cart)=  0.00270218 RMS(Int)=  0.00001450
 Iteration  2 RMS(Cart)=  0.00001500 RMS(Int)=  0.00000008
 Iteration  3 RMS(Cart)=  0.00000000 RMS(Int)=  0.00000008
 Variable       Old X    -DE/DX   Delta X   Delta X   Delta X     New X
                                 (Linear)    (Quad)   (Total)
    R1        2.06069   0.00002   0.00000   0.00007   0.00007   2.06076
    R2        2.44374  -0.00008   0.00000  -0.00500  -0.00500   2.43874
    R3        2.07430  -0.00000   0.00000   0.00006   0.00006   2.07436
    R4        2.60501   0.00018   0.00000   0.00060   0.00060   2.60560
    R5        1.91580  -0.00028   0.00000   0.00287   0.00287   1.91867
    R6        1.82193   0.00002   0.00000  -0.00001  -0.00001   1.82192
    A1        1.82057  -0.00007   0.00000   0.00015   0.00015   1.82073
    A2        1.96048   0.00000   0.00000  -0.00027  -0.00027   1.96021
    A3        1.90793   0.00010   0.00000   0.00031   0.00031   1.90824
    A4        1.81474  -0.00014   0.00000  -0.00047  -0.00047   1.81427
    A5        1.93831   0.00011   0.00000   0.00064   0.00064   1.93895
    A6        2.01074  -0.00001   0.00000  -0.00032  -0.00032   2.01042
    A7        1.89948   0.00006   0.00000   0.00011   0.00011   1.89959
    A8        3.11527  -0.00011   0.00000  -0.00457  -0.00457   3.11070
    A9        3.13868  -0.00016   0.00000  -0.01013  -0.01013   3.12856
    D1       -3.04201   0.00000   0.00000   0.00345   0.00345  -3.03856
    D2        1.24175  -0.00002   0.00000   0.00272   0.00272   1.24447
    D3       -0.81526   0.00008   0.00000   0.00308   0.00308  -0.81218
         Item               Value     Threshold  Converged?
 Maximum Force            0.000282     0.002500     YES
 RMS     Force            0.000109     0.001667     YES
 Maximum Displacement     0.006635     0.010000     YES
 RMS     Displacement     0.002709     0.006667     YES
 Predicted change in Energy=-1.102934D-06
 Optimization completed.
    -- Stationary point found.
                           ----------------------------
                           !   Optimized Parameters   !
                           ! (Angstroms and Degrees)  !
 --------------------------                            --------------------------
 ! Name  Definition              Value          Derivative Info.                !
 --------------------------------------------------------------------------------
 ! R1    R(1,2)                  1.0905         -DE/DX =    0.0                 !
 ! R2    R(1,3)                  1.2932         -DE/DX =   -0.0001              !
 ! R3    R(1,4)                  1.0977         -DE/DX =    0.0                 !
 ! R4    R(1,5)                  1.3785         -DE/DX =    0.0002              !
 ! R5    R(3,7)                  1.0138         -DE/DX =   -0.0003              !
 ! R6    R(5,6)                  0.9641         -DE/DX =    0.0                 !
 ! A1    A(2,1,3)              104.3111         -DE/DX =   -0.0001              !
 ! A2    A(2,1,4)              112.3273         -DE/DX =    0.0                 !
 ! A3    A(2,1,5)              109.3164         -DE/DX =    0.0001              !
 ! A4    A(3,1,4)              103.9769         -DE/DX =   -0.0001              !
 ! A5    A(3,1,5)              111.0568         -DE/DX =    0.0001              !
 ! A6    A(4,1,5)              115.207          -DE/DX =    0.0                 !
 ! A7    A(1,5,6)              108.8322         -DE/DX =    0.0001              !
 ! A8    L(1,3,7,6,-1)         178.4916         -DE/DX =   -0.0001              !
 ! A9    L(1,3,7,6,-2)         179.8333         -DE/DX =   -0.0002              !
 ! D1    D(2,1,5,6)           -174.2944         -DE/DX =    0.0                 !
 ! D2    D(3,1,5,6)             71.147          -DE/DX =    0.0                 !
 ! D3    D(4,1,5,6)            -46.7108         -DE/DX =    0.0001              !
 --------------------------------------------------------------------------------
 GradGradGradGradGradGradGradGradGradGradGradGradGradGradGradGradGradGrad


 ----------------------------------------------------------------------

 Electric dipole moment (input orientation):
 (Debye = 10**-18 statcoulomb cm , SI units = C m)
                  (au)            (Debye)         (10**-30 SI)
   Tot        0.646633D+00      0.164358D+01      0.548238D+01
   x         -0.602431D+00     -0.153123D+01     -0.510762D+01
   y          0.167109D+00      0.424750D+00      0.141681D+01
   z          0.165183D+00      0.419854D+00      0.140048D+01

 Dipole polarizability, Alpha (input orientation).
 (esu units = cm**3 , SI units = C**2 m**2 J**-1)
 Alpha(0;0):
               (au)            (10**-24 esu)      (10**-40 SI)
   iso        0.224808D+02      0.333131D+01      0.370658D+01
   aniso      0.190210D+02      0.281862D+01      0.313613D+01
   xx         0.162444D+02      0.240716D+01      0.267833D+01
   yx         0.162243D+01      0.240419D+00      0.267502D+00
   yy         0.188132D+02      0.278783D+01      0.310188D+01
   zx        -0.464090D+01     -0.687710D+00     -0.765180D+00
   zy        -0.460567D+01     -0.682489D+00     -0.759372D+00
   zz         0.323848D+02      0.479893D+01      0.533953D+01

 ----------------------------------------------------------------------

 Dipole orientation:
     6         -2.10595297         -2.89878993          7.05726288
     1         -2.30543157         -4.56633216          5.86312841
     1         -3.61927227         -1.25842802          6.06179997
     1         -2.87263770         -3.19688873          8.96148621
     8          0.36164260         -2.06824593          6.97225654
     1          0.56338753         -0.70146066          8.15995294
     1         -4.77108761          0.06355428          5.28980809

 Electric dipole moment (dipole orientation):
 (Debye = 10**-18 statcoulomb cm , SI units = C m)
                  (au)            (Debye)         (10**-30 SI)
   Tot        0.646633D+00      0.164358D+01      0.548238D+01
   x          0.000000D+00      0.000000D+00      0.000000D+00
   y          0.000000D+00      0.000000D+00      0.000000D+00
   z          0.646633D+00      0.164358D+01      0.548238D+01

 Dipole polarizability, Alpha (dipole orientation).
 (esu units = cm**3 , SI units = C**2 m**2 J**-1)
 Alpha(0;0):
               (au)            (10**-24 esu)      (10**-40 SI)
   iso        0.224808D+02      0.333131D+01      0.370658D+01
   aniso      0.190210D+02      0.281862D+01      0.313613D+01
   xx         0.262254D+02      0.388620D+01      0.432398D+01
   yx        -0.717913D+01     -0.106384D+01     -0.118368D+01
   yy         0.229281D+02      0.339760D+01      0.378034D+01
   zx         0.613579D+01      0.909230D+00      0.101166D+01
   zy        -0.393875D+01     -0.583663D+00     -0.649412D+00
   zz         0.182888D+02      0.271012D+01      0.301541D+01

 ----------------------------------------------------------------------
 1\1\GINC-COMPUTE-1-01\Freq\UwB97XD\6-31G(d)\C1H5O1(2)\UA25450\08-Nov-2
 018\0\\#N Geom=AllCheck Guess=TCheck SCRF=Check GenChk UwB97XD/6-31G(d
 ) Freq\\ni1182a\\0,2\C,-4.1174027824,-0.7009720588,0.312175615\H,-3.73
 0497491,-1.7200030013,0.2804548725\H,-3.7073364234,-0.1688179624,-0.79
 27909982\H,-5.2116672011,-0.6677205271,0.2323746365\O,-3.5881766225,-0
 .0460533436,1.4036382776\H,-4.0020594845,0.8216398945,1.4767361184\H,-
 3.3807080351,0.2710667987,-1.6457859518\\Version=ES64L-G16RevA.03\Stat
 e=2-A\HF=-116.1631112\S2=0.757695\S2-1=0.\S2A=0.750013\RMSD=1.398e-09\
 RMSF=1.206e-04\ZeroPoint=0.0500261\Thermal=0.0538356\Dipole=-0.6024312
 ,0.1671093,0.1651834\DipoleDeriv=0.4380495,0.065474,0.1841208,0.094579
 4,0.4314993,0.2495683,0.030373,0.1310345,1.1586084,0.0266764,0.0378183
 ,0.0336214,0.043236,-0.1082786,-0.0076627,-0.0105995,0.0368417,0.01518
 41,-0.0340641,-0.0198851,0.0942874,-0.0215031,-0.0311309,0.1229211,0.0
 09426,-0.0269961,-0.2808323,-0.2006943,-0.0257774,-0.0182942,-0.020194
 3,0.0062207,0.0550492,0.0306418,-0.0165656,-0.0570201,-0.4605778,-0.15
 6022,-0.1832063,-0.1664598,-0.432849,-0.4209484,-0.0037388,-0.1435055,
 -1.1517877,0.3040503,0.0934021,-0.0763319,0.0711976,0.2130324,0.029953
 7,-0.0602257,0.0124944,0.3532892,-0.07344,0.00499,-0.0341972,-0.000855
 8,-0.0784939,-0.0288813,0.0041232,0.0066965,-0.0374415\Polar=16.244353
 7,1.6224286,18.8131866,-4.6408961,-4.6056665,32.3847717\Quadrupole=0.0
 612602,2.330816,-2.3920762,-0.6849745,-0.0464798,1.6916022\PG=C01 [X(C
 1H5O1)]\NImag=1\\0.55421963,-0.08779215,0.55192789,0.09730155,0.127172
 85,0.32014028,-0.09310089,0.10320585,-0.00567459,0.09000803,0.10279489
 ,-0.29385311,-0.00998145,-0.10448273,0.31583659,-0.01174731,0.01070603
 ,-0.04057191,0.00741409,0.01412566,0.05090781,-0.03369352,0.00980648,-
 0.02647192,0.00105267,0.00282307,-0.00381085,0.04394800,0.00948395,-0.
 02810668,-0.03583167,-0.00955692,-0.00923720,0.01815223,-0.01123097,0.
 03640443,-0.02169464,-0.03179677,0.04880371,0.00575046,0.00366312,-0.0
 0519082,0.02974755,0.03976538,-0.01982472,-0.31276160,0.02291204,-0.01
 565122,-0.00681233,-0.00182906,0.00115593,-0.00796060,0.00050070,0.002
 44276,0.33389348,0.01746963,-0.05372804,-0.01011038,0.02939427,0.00318
 528,-0.00016366,-0.01223804,-0.00212990,0.00824937,-0.01411710,0.04901
 436,-0.00039694,-0.00815842,-0.04263269,-0.00118122,0.00096897,0.00211
 104,0.01924210,0.00265637,-0.00546816,0.02154096,0.00992884,0.05140293
 ,-0.11569150,-0.01295108,-0.07222115,0.00780427,0.00290652,0.01102837,
 0.00579194,0.00299419,-0.00084830,-0.00800306,-0.01984035,-0.03804500,
 0.23054001,-0.04085098,-0.14473668,-0.10843140,-0.01690618,-0.01706066
 ,-0.03620782,0.00403055,0.00830154,-0.00349935,-0.00727881,0.00159976,
 -0.00658598,-0.15753853,0.57002402,-0.10690521,-0.09498642,-0.20723450
 ,-0.00106612,-0.00628409,-0.00584287,-0.00547125,-0.00654678,-0.040171
 31,-0.00884744,-0.00654774,-0.00818280,0.11585932,0.16673062,0.2861152
 7,0.00496821,-0.02136975,-0.00569576,0.00037675,-0.00185897,-0.0033834
 4,0.00029197,0.00111648,-0.00188692,0.00093184,-0.00191413,0.00058889,
 -0.12071129,0.21830623,0.00715996,0.11443726,0.01251413,-0.02030353,-0
 .00032696,-0.00269535,0.00027938,-0.00466149,-0.00013415,0.00027392,0.
 00204661,0.00027615,0.00120195,0.00243140,0.18388722,-0.41829889,-0.05
 192075,-0.19401777,0.43692225,0.01624842,-0.03943205,-0.00943383,-0.00
 328890,-0.00208895,-0.00348646,0.00007951,-0.00089708,0.00072962,-0.00
 093488,0.00093331,0.00050887,-0.01507207,-0.01176742,-0.03151393,0.002
 79132,0.05296045,0.04343343,-0.00394032,-0.01381140,0.02841309,0.00067
 151,-0.00035372,-0.00065679,-0.00943045,0.00669258,-0.01351092,0.00071
 228,0.00124572,-0.00174877,0.00026964,0.00023770,-0.00072925,-0.000294
 73,0.00016976,0.00017661,0.01201208,-0.01361946,-0.01119985,0.03750900
 ,0.00104106,0.00084972,-0.00195095,0.00694306,-0.00550612,-0.01842837,
 -0.00046392,0.00085658,-0.00124117,0.00054202,0.00017091,-0.00044484,-
 0.00026210,-0.00007509,0.00029175,0.00581935,0.01490386,0.02719414,0.0
 3649478,-0.06907105,-0.00195370,-0.00040327,0.00207321,-0.01331514,-0.
 01729846,0.02112169,0.00029389,-0.00228974,0.00226081,-0.00070116,-0.0
 0023864,0.00683014,0.00042595,-0.00052926,-0.00023770,-0.01194397,-0.0
 1573542,0.03702291\\-0.00015833,0.00008156,-0.00002130,0.00000091,0.00
 002078,0.00006909,0.00020116,-0.00000845,0.00030885,-0.00001145,-0.000
 06592,0.00007667,-0.00003476,-0.00011950,-0.00009619,0.00001844,-0.000
 00857,-0.00004714,-0.00001599,0.00010010,-0.00028998\\\@


 IT IS DOUBTED WHETHER A MAN EVER BRINGS HIS FACULTIES TO BEAR WITH THEIR FULL FORCE
 ON A SUBJECT UNTIL HE WRITES UPON IT.

                          -- CICERO
 Job cpu time:       0 days  0 hours  0 minutes 26.1 seconds.
 Elapsed time:       0 days  0 hours  0 minutes 13.7 seconds.
 File lengths (MBytes):  RWF=     82 Int=      0 D2E=      0 Chk=      2 Scr=      2
 Normal termination of Gaussian 16 at Thu Nov  8 12:54:20 2018.
