 Entering Gaussian System
 *********************************************
 Gaussian 98:
 frequency output generated by the xtb code
 *********************************************
                         Standard orientation:
 --------------------------------------------------------------------
  Center     Atomic     Atomic              Coordinates (Angstroms)
  Number     Number      Type              X           Y           Z
 --------------------------------------------------------------------
    1          6             0       -4.117403   -0.700972    0.312176
    2          1             0       -3.730497   -1.720003    0.280455
    3          1             0       -3.707336   -0.168818   -0.792791
    4          1             0       -5.211667   -0.667721    0.232375
    5          8             0       -3.588177   -0.046053    1.403638
    6          1             0       -4.002059    0.821640    1.476736
    7          1             0       -3.380708    0.271067   -1.645786
 --------------------------------------------------------------------
     1 basis functions        1 primitive gaussians
     1 alpha electrons        1 beta electrons
 
 Harmonic frequencies (cm**-1), IR intensities (KM/Mole),
 Raman scattering activities (A**4/amu), Raman depolarization ratios,
 reduced masses (AMU), force constants (mDyne/A) and normal coordinates:
                      1                      2                      3
                        a                      a                      a 
 Frequencies --   171.4785               374.9632               507.8583
 Red. masses --    99.0000                99.0000                99.0000
 Frc consts  --    99.0000                99.0000                99.0000
 IR Inten    --    99.0000                99.0000                99.0000
 Raman Activ --     0.0000                 0.0000                 0.0000
 Depolar     --     0.0000                 0.0000                 0.0000
 Atom AN      X      Y      Z        X      Y      Z        X      Y      Z
   1   6    -0.13  -0.28   0.10    -0.26  -0.01   0.09     0.06  -0.16   0.09
   2   1    -0.06  -0.09   0.12     0.10   0.07  -0.13    -0.31  -0.17   0.22
   3   1     0.00  -0.02   0.11    -0.09   0.10  -0.03     0.31  -0.12  -0.13
   4   1    -0.04  -0.05   0.05    -0.08  -0.15   0.18     0.06   0.36  -0.26
   5   8     0.03   0.09  -0.21     0.21   0.09  -0.22     0.11   0.11  -0.11
   6   1     0.21   0.14  -0.29    -0.41  -0.23   0.37    -0.42  -0.22   0.28
   7   1     0.23   0.60   0.49     0.55  -0.13   0.18    -0.25   0.24   0.03
                      4                      5                      6
                        a                      a                      a 
 Frequencies --   678.5387              1072.8620              1038.2695
 Red. masses --    99.0000                99.0000                99.0000
 Frc consts  --    99.0000                99.0000                99.0000
 IR Inten    --    99.0000                99.0000                99.0000
 Raman Activ --     0.0000                 0.0000                 0.0000
 Depolar     --     0.0000                 0.0000                 0.0000
 Atom AN      X      Y      Z        X      Y      Z        X      Y      Z
   1   6     0.13   0.16  -0.33     0.22  -0.01  -0.24    -0.07   0.21  -0.04
   2   1    -0.15  -0.06   0.21    -0.25  -0.13   0.08     0.22   0.12   0.56
   3   1    -0.21  -0.38   0.73    -0.34  -0.18  -0.48     0.03  -0.28  -0.33
   4   1    -0.01  -0.06   0.13     0.01   0.13   0.52    -0.03  -0.26  -0.05
   5   8     0.02   0.00  -0.03    -0.05   0.03   0.23    -0.07  -0.13  -0.11
   6   1    -0.12  -0.07   0.13    -0.15  -0.04  -0.14     0.28   0.07   0.42
   7   1    -0.03  -0.00   0.06     0.17   0.14  -0.07     0.02   0.14  -0.03
                      7                      8                      9
                        a                      a                      a 
 Frequencies --  1156.3670              1259.4653              1286.3102
 Red. masses --    99.0000                99.0000                99.0000
 Frc consts  --    99.0000                99.0000                99.0000
 IR Inten    --    99.0000                99.0000                99.0000
 Raman Activ --     0.0000                 0.0000                 0.0000
 Depolar     --     0.0000                 0.0000                 0.0000
 Atom AN      X      Y      Z        X      Y      Z        X      Y      Z
   1   6    -0.33  -0.31  -0.47     0.18  -0.26  -0.05     0.13  -0.01   0.17
   2   1     0.02  -0.04  -0.12    -0.17  -0.14   0.24     0.14   0.06  -0.46
   3   1     0.04  -0.12  -0.06    -0.48   0.52   0.07    -0.39  -0.50  -0.12
   4   1    -0.07  -0.16  -0.25     0.05   0.15  -0.20     0.07   0.28  -0.27
   5   8     0.27   0.32   0.49    -0.09   0.09  -0.06    -0.09   0.04  -0.05
   6   1     0.08   0.08   0.13     0.22   0.10   0.35     0.12   0.06   0.21
   7   1     0.00   0.05  -0.04     0.10  -0.09  -0.04    -0.01  -0.03   0.27
                     10                     11                     12
                        a                      a                      a 
 Frequencies --  1305.1193              1438.8464              2889.3785
 Red. masses --    99.0000                99.0000                99.0000
 Frc consts  --    99.0000                99.0000                99.0000
 IR Inten    --    99.0000                99.0000                99.0000
 Raman Activ --     0.0000                 0.0000                 0.0000
 Depolar     --     0.0000                 0.0000                 0.0000
 Atom AN      X      Y      Z        X      Y      Z        X      Y      Z
   1   6     0.08  -0.18  -0.05    -0.15  -0.20  -0.19     0.24  -0.00   0.02
   2   1    -0.10  -0.09  -0.32     0.58   0.20   0.23     0.06  -0.06  -0.01
   3   1     0.42  -0.01   0.08     0.03   0.04   0.10     0.02   0.00  -0.01
   4   1    -0.01   0.05   0.50    -0.00   0.63   0.23    -0.96   0.05  -0.07
   5   8    -0.21   0.13  -0.12    -0.00  -0.02   0.03     0.01   0.01   0.01
   6   1     0.31   0.16   0.45    -0.04  -0.02  -0.05    -0.00  -0.01   0.00
   7   1    -0.06   0.02  -0.06    -0.03  -0.04   0.03    -0.00  -0.00   0.00
                     13                     14                     15
                        a                      a                      a 
 Frequencies --  2998.9254              1674.8333              3533.9204
 Red. masses --    99.0000                99.0000                99.0000
 Frc consts  --    99.0000                99.0000                99.0000
 IR Inten    --    99.0000                99.0000                99.0000
 Raman Activ --     0.0000                 0.0000                 0.0000
 Depolar     --     0.0000                 0.0000                 0.0000
 Atom AN      X      Y      Z        X      Y      Z        X      Y      Z
   1   6    -0.11   0.24   0.01    -0.07  -0.09   0.24     0.00  -0.01  -0.00
   2   1     0.35  -0.90  -0.03     0.08   0.01  -0.08    -0.01   0.01  -0.00
   3   1    -0.01   0.02  -0.01    -0.10  -0.15   0.18     0.00   0.00   0.00
   4   1     0.05   0.03  -0.00    -0.01   0.08  -0.08    -0.00   0.00   0.00
   5   8     0.00   0.00   0.00    -0.00  -0.00  -0.02     0.10  -0.22  -0.02
   6   1    -0.00   0.01   0.00    -0.00  -0.00   0.00    -0.42   0.87   0.08
   7   1    -0.00  -0.00   0.01     0.30   0.40  -0.77    -0.00  -0.00   0.00
