 
        ______________________________________
       |                                      |
       |           ==================         |
       |                 x T B                |
       |           ==================         |
       |               S. Grimme              |
       |        Universitaet Bonn, MCTC       |
       |         2015-18, Version 5.8.1       |
       |      Sun May  6 11:39:08 CEST 2018   |
       |______________________________________|
 
        This code comes without any warranty
        for non-commercial, academia use only.
        Preliminary GFN2 test version.
        Test license to: Dow Chemical Company
        Cite GFN-xTB work as:
        S. Grimme, C. Bannwarth, P. Shushkov
        JCTC, 13 (2017) 1989-2009
        for GFN2:
        C. Bannwarth, S. Ehlert, S. Grimme
        to be published.
        sTDA-xTB:
        S. Grimme  &  C. Bannwarth, JCP 145 (2016) 054103
        in the mass-spec context additionally:
        V. Asgeirsson, C.Bauer, S. Grimme, Chem. Sci. 8 (2017) 4879
 
        with help from
        P. Shushkov, G. Brandenburg, S. Dohm, J. Pisarek,
        F. März, M. Checinski, S. Ehrlich, S. Spicher, 
        P. Pracht, E. Caldeweyher, S. Ehlert, and C. Bannwarth.
 
        usage        :
        xtb <coord_file> [options]
        where <coord_file> is a valid file of TM)
        (*coord, Bohr) or xmol (*xyz, Angstroem)
        format.

        options:
        -chrg <int>   : molecular charge
        -uhf  <int>   : # of unpaired electrons(=2*S)
        -nox          : skip second, extended part in sTDA-xTB
        -pop          : do population analysis
                      : (default for -nox)
        -mowr <real>  : cut MO write above (def.3 Eh)
        -molden       : write formatted molden file
        -parx <file>  : read parameters for sTDA-xTB
                        calc (def:~/.param_stda2.xtb)
        -parv <file>  : read parameters for vTB part in
                        sTDA-xTB (def: ~/.param_stda1.xtb)
        -xtemp <real> : el. temp for xTB (def. 0 K)
        -etemp <real> : el. temp for GFN (def. 300 K)
        -fod          : calculate the FOD and write
                        molden.input file with
                        appropriate occupations
                        for plotting. Def. T=12500 K
 
        -gfn1         : use GFN-xTB
        -gfn2         : use GFN2-xTB
        -gfn2d3       : GFN2-xTB with D3 instead of D4
        -grad         : GFNn-xTB gradient
        -acc <real>   : GFNn-xTB accuracy (def. 1.0)
        -opt [level]  : optimize at GFNn-xTB
                      : level=crude,vloose,loose,
                      :       tight,vtight
        -hess         : compute Hessian at GFNn-xTB
        -ohess        : optimize and compute Hessian
        -omd          : optimize and do MD
        -siman        : conformational search
        -screen       : opt. loop over ensemble
        -gmd          : annealed MD for GMD procedure
        -modef        : vib mode following
        -gbsa [string1] [string2]
                        use GBSA implicit solvent
                        for solvent [string1] and
                        solvation state [string2]=
                        reference, bar1M (default=1M)
        additional GFN/opt/MD/siman options read from
        $XTBHOME/.xtbrc or $set in coordinate file
 
       spin and charge state information can be on:
       <.CHRG> (charge) and <.UHF> (=nalpha-nbeta)
       -uhf and -chrg override the file info.
       useful machine settings:
       setenv MKL_NUM_THREADS <NCORE_ON_YOUR_MACHINE>
       setenv OMP_STACKSIZE 500m
       limit stacksize unlimited
 
       total energies in Eh, gaps/HL energies in eV
       please read REVISION and HOWTO files carefully
         144  days left until this code expires
 =============================
  # OMP threads =           2
 =============================
 
 xtbhome directory:/home/ua25450/dftb/
 
 argument            1 :-ohess
 
 name of molecule           :
 comment line               :
 number of atoms            :     6
 number of electrons        :    12
 charge                     :  0
 spin                       : 0.0
 first test random number   :  0.7542
 
 
 -----------------------------------------
  G F N (Geometry, Frequency, Non-covalent)
        parametrization, gfnver=           3
     D4 dispersion model
 /home/ua25450/dftb/.param_gfn2.xtb
 -----------------------------------------
      method parameters     
 k(s)        :  1.8500
 k(p)        :  2.2300
 k(d)        :  2.2300
 k(f)        :  2.0000
 kEN (H0ij)  : -2.0000
 D3 a1       :  0.5200
 D3 a2       :  5.0000
 D3 s8       :  2.7000
 D3atm       :  5.0000
 alphaj      :  2.0000
 
     -------------------------
     ! NO SOLVENT MODEL USED !
     -------------------------
 
 doing EN charges ...
 sum q : -0.4440892D-15
 point charge moment (au)
     X       Y       Z   
   0.0000   0.0000   0.0000  total (Debye):    0.000
 
            Z     q(EN)     CN     RAES       Cart. coordinates
     1  C   4.0   -0.08    2.99    3.02     0.00000     0.00000     1.25549
     2  H   1.0    0.04    1.00    1.43     0.00000     1.74981     2.33279
     3  H   1.0    0.04    1.00    1.43     0.00000    -1.74981     2.33279
     4  C   4.0   -0.08    2.99    3.02     0.00000     0.00000    -1.25549
     5  H   1.0    0.04    1.00    1.43     0.00000    -1.74981    -2.33279
     6  H   1.0    0.04    1.00    1.43     0.00000     1.74981    -2.33279
 
  Z AO/shell   Hii/eV     exponent
  1     Wed Apr 25 08:07:45 CEST 2018   EN: 2.200 GM2: 0.406  GM3: 0.0800  RAES: 1.40
     1s    -10.707211    1.230000
  6     Wed Apr 25 08:07:45 CEST 2018   EN: 2.550 GM2: 0.538  GM3: 0.1500  RAES: 3.00
     2s    -13.970922    2.096432
     2p    -10.063292    1.800000
 
Molecule has the following symmetry elements: (i) 3*(C2) 3*(sigma) 
It seems to be the D2h point group
d2h symmetry found (for desy threshold:  0.10E+00) used in thermo
 no old-style atom pair restraing (fixing) potential
 
             =======================================
             |                                     |
             |        S C C  calculation           |
             |                                     |
             =======================================
 #proc     :            2
 Ncao      :           12
 Nao       :           12
 Nel       :           12
 T(el)     :   300.0
 intcut    :    25.0
 scfconv   :  0.100E-05
   qconv   :  0.100E-03
 intneglect:  0.100E-07
 broydamp  :      0.400
 Nshell    :            8
 iter      E             dE          RMSdq      gap      omega  full diag
   1     -6.3882726 -0.638827E+01  0.509E+00    5.59       0.0  T
   2     -6.3888557 -0.583107E-03  0.306E+00    5.56       1.0  T
   3     -6.3890192 -0.163432E-03  0.146E-01    5.53       1.0  T
   4     -6.3890305 -0.113461E-04  0.714E-02    5.53       1.0  T
   5     -6.3890306 -0.111615E-06  0.474E-03    5.53       8.6  T
   6     -6.3890306 -0.328809E-07  0.141E-03    5.53      29.0  T
   7     -6.3890306 -0.817595E-10  0.399E-05    5.53    1023.4  T
   8     -6.3890306 -0.228262E-11  0.171E-06    5.53   23928.4  T
speedup  1.68
cpu  time for SCC    0.01 s
wall time for SCC    0.00 s

          eigenvalues
 #    :           1          2          3          4          5          6          7          8
 occ. :        2.000      2.000      2.000      2.000      2.000      2.000      0.000      0.000
 eps  :       -16.532    -14.908    -13.744    -12.796    -11.758    -11.263     -5.733      3.387
 #    :           9         10         11         12
 occ. :        0.000      0.000      0.000      0.000
 eps  :         4.054      4.995     11.386     15.444
 

   #   Z            q   n(s)   n(p)   n(d)      C6AA      α(0)    relVol
   1   6 C     -0.077  1.090  2.986  0.000    29.870     8.941     0.724
   2   1 H      0.038  0.962  0.000  0.000     2.467     2.456     0.486
   3   1 H      0.038  0.962  0.000  0.000     2.467     2.456     0.486
   4   6 C     -0.077  1.090  2.986  0.000    29.870     8.941     0.724
   5   1 H      0.038  0.962  0.000  0.000     2.467     2.456     0.486
   6   1 H      0.038  0.962  0.000  0.000     2.467     2.456     0.486

 Mol. C6AA /au*bohr^6 :        296.112459
 Mol. C8AA /au*bohr^6 :       6497.386299
 Mol. a(0) /au        :         27.706053

 
 Wiberg/Mayer (AO) data. WBOs > 0.1 written file <wbo>
 largest (>0.05) Wiberg bond orders for each atom
           total WBO             WBO to atom ...
     1  C   3.992    C    4 2.035    H    2 0.978    H    3 0.978
     2  H   0.999    C    1 0.978
     3  H   0.999    C    1 0.978
     4  C   3.992    C    1 2.035    H    6 0.978    H    5 0.978
     5  H   0.999    C    4 0.978
     6  H   0.999    C    4 0.978
 
molecular dipole:
                 x           y           z       tot (Debye)
 q only:        0.000      -0.000       0.000
   full:        0.000      -0.000       0.000       0.000
molecular quadrupole (traceless):
                xx          xy          yy          xz          yz          zz
 q only:       -0.530       0.000       0.173       0.000       0.000       0.357
  q+dip:       -2.357      -0.000       1.108      -0.000       0.000       1.248
   full:       -1.264       0.000       0.662      -0.000       0.000       0.602
 SCC converged in            8  cycles
 
SCC energy    :      -6.3890306
rep           :       0.1182258
ES            :       0.0012420
AES           :       0.0020083
AXC           :       0.0079953
disp          :      -0.0014465
XB            :       0.0000000
fix           :       0.0000000
total E       :      -6.2708048
atomizationE  :       1.4511167      910.59
(atE without considerung molecular charge,
 total energy contains solvation terms)
H-L gap (eV)  :          5.5302
 
             =======================================
             |                                     |
             |    Approximate Normal Coordinate    |
             |   Rational Function Optimization    |
             |                                     |
             =======================================
Ref. for RF algo: F.Eckert, P.Pulay, H.-J.Werner
                  J.Comput.Chem. 18 (1997) 1473.
ANC idea implemented by S. Grimme in the 2000ers (unpublished)
restraining potential by S. Ehrlich.
dumping coords to <xtbopt.coord> and <xtbopt.log
 optlevel               1
 Maxcycle             200
 Maxmicro              20
 Econv         1.000000000000000E-006
 Gconv         8.000000000000000E-004
 Maxdispl       1.00000000000000     
 Hlow          1.000000000000000E-002
 S6             20.0000000000000     
 Nvar               12

generating ANC from model Hessian ...
 Shifting diagonal of input Hessian by   0.000000000000000E+000
 Lowest  eigenvalues of input Hessian
   -0.000000   -0.000000   -0.000000    0.000000    0.000000    0.000000
    0.020042    0.030245    0.073558    0.077432    0.112701    0.207641
    0.209210    0.359052    0.774083    1.081756    1.447420    1.887533
 Highest eigenvalues
    0.209210    0.359052    0.774083    1.081756    1.447420    1.887533
 
cpu  time for ANC gen    0.00 s
wall time for ANC gen    0.00 s
................................................................................
.............................. CYCLE    1 ......................................
................................................................................
  q data taken from xtbrestart
  CAMM data taken from xtbrestart
   1     -6.3890306 -0.638903E+01  0.390E-08    5.53       0.0  T
   2     -6.3890306  0.888178E-14  0.127E-08    5.53  100000.0  T
   3     -6.3890306 -0.266454E-14  0.563E-09    5.53  100000.0  T
speedup  1.94
cpu  time for SCC    0.00 s
wall time for SCC    0.00 s
speedup  2.00
cpu  time for grad    0.00 s
wall time for grad    0.00 s
 E :     -6.27080481  G :  0.019427    pred/act E change:  0.000D+00 -0.150D-12
Maxdispl :   0.0446   ||displ|| :   0.0458   Lambda : -0.787D-03
Largest |displ|/coords:  0.0446 (   8)  0.0088 (   5)  0.0058 (  12)
................................................................................
.............................. CYCLE    2 ......................................
................................................................................
   1     -6.3977853 -0.639779E+01  0.532E-02    5.67       0.0  T
   2     -6.3977857 -0.368638E-06  0.307E-02    5.67       1.3  T
   3     -6.3977857 -0.346050E-07  0.419E-03    5.67       9.7  T
   4     -6.3977857 -0.639046E-08  0.843E-04    5.67      48.4  T
   5     -6.3977857 -0.212959E-10  0.315E-05    5.67    1294.7  T
speedup  2.00
cpu  time for SCC    0.00 s
wall time for SCC    0.00 s
speedup  2.00
cpu  time for grad    0.00 s
wall time for grad    0.00 s
 E :     -6.27124550  G :  0.002214    pred/act E change:  0.000D+00 -0.441D-03
Maxdispl :   0.0070   ||displ|| :   0.0099   Lambda : -0.195D-04
Largest |displ|/coords:  0.0070 (   5)  0.0070 (   8)  0.0002 (  12)
................................................................................
.............................. CYCLE    3 ......................................
................................................................................
   1     -6.3988443 -0.639884E+01  0.139E-02    5.68       0.0  T
   2     -6.3988443 -0.101065E-07  0.828E-03    5.68       4.9  T
   3     -6.3988443 -0.716758E-09  0.545E-04    5.68      74.9  T
   4     -6.3988443 -0.237717E-09  0.173E-04    5.68     236.5  T
speedup  1.99
cpu  time for SCC    0.00 s
wall time for SCC    0.00 s
speedup  2.00
cpu  time for grad    0.00 s
wall time for grad    0.00 s
 E :     -6.27125591  G :  0.000461    pred/act E change: -0.394D-03 -0.104D-04
Maxdispl :   0.0023   ||displ|| :   0.0023   Lambda : -0.625D-06
Largest |displ|/coords:  0.0023 (   5)  0.0002 (  12)  0.0001 (   8)
................................................................................
.............................. CYCLE    4 ......................................
................................................................................
   1     -6.3988216 -0.639882E+01  0.274E-03    5.68       0.0  T
   2     -6.3988216 -0.164900E-08  0.164E-03    5.68      24.9  T
   3     -6.3988216 -0.149543E-10  0.228E-04    5.68     179.1  T
   4     -6.3988216 -0.310152E-10  0.114E-05    5.68    3567.0  T
speedup  2.00
cpu  time for SCC    0.00 s
wall time for SCC    0.00 s
speedup  2.00
cpu  time for grad    0.00 s
wall time for grad    0.00 s
 E :     -6.27125633  G :  0.000281    pred/act E change: -0.977D-05 -0.412D-06
Maxdispl :   0.0010   ||displ|| :   0.0011   Lambda : -0.134D-06
Largest |displ|/coords:  0.0010 (   5)  0.0002 (  12)  0.0002 (   8)
ancopt converged in          4 cycles
total energy gain (kcal):     -0.2833
================
 final structure:
================
     6
         -6.27125633
C          -0.00000000000000   -0.00000000074440    0.65821791484663
H           0.00000000000000    0.91407205158354    1.22907678168443
H           0.00000000000000   -0.91407205196208    1.22907678272319
C           0.00000000000000    0.00000000074440   -0.65821791483925
H          -0.00000000000000   -0.91407205156904   -1.22907678168812
H          -0.00000000000000    0.91407205194758   -1.22907678272688
 
 Bond Distances (Angstroems)
 ---------------------------
C1-H2=1.0777         C1-H3=1.0777         C1-C4=1.3164         H2-C1=1.0777         H3-C1=1.0777         C4-C1=1.3164         
C4-H5=1.0777         C4-H6=1.0777         H5-C4=1.0777         H6-C4=1.0777         
 C  H  Rav=1.0777 sigma=0.0000  Rmin=1.0777  Rmax=1.0777     4
 C  C  Rav=1.3164 sigma=0.0000  Rmin=1.3164  Rmax=1.3164     1
 
 selected bond angles (degree)
 --------------------
H3-C1-H2=116.03                C4-C1-H2=121.99                C4-C1-H3=121.99                H5-C4-C1=121.99                
H6-C4-C1=121.99                H6-C4-H5=116.03                
 
 selected dihedral angles (degree)
 ---------------------------------
H5-C4-C1-H2=180.00            H5-C4-C1-H3=  0.00            H6-C4-C1-H2=  0.00            H6-C4-C1-H3=180.00            
 
             =======================================
             |                                     |
             |        S C C  calculation           |
             |                                     |
             =======================================
 #proc     :            2
 Ncao      :           12
 Nao       :           12
 Nel       :           12
 T(el)     :   300.0
 intcut    :    25.0
 scfconv   :  0.100E-05
   qconv   :  0.100E-03
 intneglect:  0.100E-07
 broydamp  :      0.400
 Nshell    :            8
 iter      E             dE          RMSdq      gap      omega  full diag
   1     -6.3988216 -0.639882E+01  0.373E-07    5.68       0.0  T
   2     -6.3988216 -0.355271E-14  0.269E-07    5.68  100000.0  T
   3     -6.3988216  0.444089E-14  0.148E-07    5.68  100000.0  T
speedup  1.99
cpu  time for SCC    0.00 s
wall time for SCC    0.00 s

          eigenvalues
 #    :           1          2          3          4          5          6          7          8
 occ. :        2.000      2.000      2.000      2.000      2.000      2.000      0.000      0.000
 eps  :       -16.590    -14.957    -13.777    -12.831    -11.739    -11.319     -5.642      3.858
 #    :           9         10         11         12
 occ. :        0.000      0.000      0.000      0.000
 eps  :         4.315      5.545     11.970     16.470
 

   #   Z            q   n(s)   n(p)   n(d)      C6AA      α(0)    relVol
   1   6 C     -0.077  1.085  2.992  0.000    29.883     8.944     0.724
   2   1 H      0.038  0.962  0.000  0.000     2.463     2.454     0.486
   3   1 H      0.038  0.962  0.000  0.000     2.463     2.454     0.486
   4   6 C     -0.077  1.085  2.992  0.000    29.883     8.944     0.724
   5   1 H      0.038  0.962  0.000  0.000     2.463     2.454     0.486
   6   1 H      0.038  0.962  0.000  0.000     2.463     2.454     0.486

 Mol. C6AA /au*bohr^6 :        296.047099
 Mol. C8AA /au*bohr^6 :       6497.042998
 Mol. a(0) /au        :         27.704029

 
 Wiberg/Mayer (AO) data. WBOs > 0.1 written file <wbo>
 largest (>0.05) Wiberg bond orders for each atom
           total WBO             WBO to atom ...
     1  C   3.993    C    4 2.037    H    3 0.977    H    2 0.977
     2  H   0.999    C    1 0.977
     3  H   0.999    C    1 0.977
     4  C   3.993    C    1 2.037    H    6 0.977    H    5 0.977
     5  H   0.999    C    4 0.977
     6  H   0.999    C    4 0.977
 
molecular dipole:
                 x           y           z       tot (Debye)
 q only:       -0.000       0.000      -0.000
   full:        0.000       0.000      -0.000       0.000
molecular quadrupole (traceless):
                xx          xy          yy          xz          yz          zz
 q only:       -0.526      -0.000       0.163       0.000      -0.000       0.363
  q+dip:       -2.284      -0.000       1.021      -0.000      -0.000       1.264
   full:       -1.226      -0.000       0.609       0.000      -0.000       0.617
 SCC converged in            3  cycles
 
SCC energy    :      -6.3988216
rep           :       0.1275652
ES            :       0.0012816
AES           :       0.0018599
AXC           :       0.0076035
disp          :      -0.0014473
XB            :       0.0000000
fix           :       0.0000000
total E       :      -6.2712563
atomizationE  :       1.4515682      910.87
(atE without considerung molecular charge,
 total energy contains solvation terms)
H-L gap (eV)  :          5.6766
 !!!!!!!!!!!!!!!!!!!!!!!!!!!!!!!!!!!
 ! Note: the input coordinates are !
 ! NOT overwritten. The optimized  !
 ! ones are on file <xtbopt.coord> !
 ! (or on <xtbopt.xyz> if it was a !
 ! xyz file)                       !
 !!!!!!!!!!!!!!!!!!!!!!!!!!!!!!!!!!!
 
Molecule has the following symmetry elements: (i) 3*(C2) 3*(sigma) 
It seems to be the D2h point group
d2h symmetry found (for desy threshold:  0.10E+00) used in thermo
  q data taken from xtbrestart
  CAMM data taken from xtbrestart
 
             =======================================
             |                                     |
             |         Numerical Hessian           |
             |                                     |
             =======================================
step length          :   0.00500
SCC accuracy         :   0.30000
Hessian scale factor :   1.00000
frozen atoms in %    :   0.00000    0
RMS gradient         :   0.00028
estimated CPU  time      0.00 min
estimated wall time      0.00 min
 
 writing file <hessian>.
 
 projected vibrational frequencies (cm-1)
eig.   :       -0.00    -0.00    -0.00     0.00     0.00     0.00
eig.   :      841.04   872.01  1020.79  1034.99  1183.57  1393.90
eig.   :     1419.71  1704.35  3097.37  3098.12  3105.70  3130.16
 reduced masses (amu)
   1:  6.79   2:  4.65   3:  9.16   4:  7.59   5:  8.88   6:  9.94   7:  1.43   8:  5.07
   9:  2.59  10:  1.01  11:  5.23  12:  1.81  13:  2.15  14: 10.61  15:  1.60  16:  1.45
  17:  2.02  18:  2.17
 IR intensities (amu)
   1:  0.08   2:  0.09   3:  0.13   4:  0.14   5:  0.12   6:  0.13   7:  0.02   8:  0.00
   9:  0.28  10:  0.00  11:  0.00  12:  0.00  13:  0.05  14:  0.00  15:  0.00  16:  0.24
  17:  0.00  18:  0.38
 output can be read by thermo (or use thermo option).
 writing <g98.out> molden fake output.
 recommended (thermochemical) frequency scaling factor: 1.0
                    ==================
                    thermo calculation
                    ==================
Nvib :   12 Nimag : 0  symmetry :  d2h  rot number :  4  scale factor : 1.00 sthr :  50.
 
   temp. (K)  partition function   enthalpy   heat capacity  entropy
                                   cal/mol     cal/K/mol   cal/K/mol   J/K/mol
 298.15  VIB   1.05                  143.075      2.280      0.584
         ROT   635.                  888.752      2.981     15.805
         INT   669.                 1031.827      5.261     16.389
         TR   0.144E+27             1481.254      4.968     35.913
         TOT                        2513.0812    10.2289    52.3015   218.8286
                     Eh         kcal/mol          kJ/mol 
ZPVE            0.498957E-01     31.3101         131.001    
H(0)-H(T)+PV    0.400485E-02     2.51308         10.5147    
H(T)            0.539006E-01     33.8231         141.515    
T*S             0.248501E-01     15.5937         65.2437    
G(T)            0.290505E-01     18.2295         76.2717    
     -6.24220585  <=== TOTAL FREE ENERGY in Eh incl. el.,ZPVE,RRHO,solv. parts
 
Eat (element increment corrected) /kcal :   688.715
        -104.704  <=== HOF(298)/kcal, to be compared to exptl. data
 
 normal mode %tage of torsion character
   1:  0.00   2:  0.00   3:  0.00   4:  0.00   5:  0.00   6:  0.00   7:  0.38   8:  1.00
   9:  1.00  10:  1.00  11:  0.15  12:  0.06  13:  0.63  14:  0.00  15:  0.00  16:  0.30
  17:  0.29  18:  0.00
 recommended # of modes for mode following           4
 
speedup  0.96
cpu  time for all    0.42 s
wall time for all    0.44 s
