 
        ______________________________________
       |                                      |
       |           ==================         |
       |                 x T B                |
       |           ==================         |
       |               S. Grimme              |
       |        Universitaet Bonn, MCTC       |
       |         2015-18, Version 5.8.1       |
       |      Sun May  6 11:39:08 CEST 2018   |
       |______________________________________|
 
        This code comes without any warranty
        for non-commercial, academia use only.
        Preliminary GFN2 test version.
        Test license to: Dow Chemical Company
        Cite GFN-xTB work as:
        S. Grimme, C. Bannwarth, P. Shushkov
        JCTC, 13 (2017) 1989-2009
        for GFN2:
        C. Bannwarth, S. Ehlert, S. Grimme
        to be published.
        sTDA-xTB:
        S. Grimme  &  C. Bannwarth, JCP 145 (2016) 054103
        in the mass-spec context additionally:
        V. Asgeirsson, C.Bauer, S. Grimme, Chem. Sci. 8 (2017) 4879
 
        with help from
        P. Shushkov, G. Brandenburg, S. Dohm, J. Pisarek,
        F. März, M. Checinski, S. Ehrlich, S. Spicher, 
        P. Pracht, E. Caldeweyher, S. Ehlert, and C. Bannwarth.
 
        usage        :
        xtb <coord_file> [options]
        where <coord_file> is a valid file of TM)
        (*coord, Bohr) or xmol (*xyz, Angstroem)
        format.

        options:
        -chrg <int>   : molecular charge
        -uhf  <int>   : # of unpaired electrons(=2*S)
        -nox          : skip second, extended part in sTDA-xTB
        -pop          : do population analysis
                      : (default for -nox)
        -mowr <real>  : cut MO write above (def.3 Eh)
        -molden       : write formatted molden file
        -parx <file>  : read parameters for sTDA-xTB
                        calc (def:~/.param_stda2.xtb)
        -parv <file>  : read parameters for vTB part in
                        sTDA-xTB (def: ~/.param_stda1.xtb)
        -xtemp <real> : el. temp for xTB (def. 0 K)
        -etemp <real> : el. temp for GFN (def. 300 K)
        -fod          : calculate the FOD and write
                        molden.input file with
                        appropriate occupations
                        for plotting. Def. T=12500 K
 
        -gfn1         : use GFN-xTB
        -gfn2         : use GFN2-xTB
        -gfn2d3       : GFN2-xTB with D3 instead of D4
        -grad         : GFNn-xTB gradient
        -acc <real>   : GFNn-xTB accuracy (def. 1.0)
        -opt [level]  : optimize at GFNn-xTB
                      : level=crude,vloose,loose,
                      :       tight,vtight
        -hess         : compute Hessian at GFNn-xTB
        -ohess        : optimize and compute Hessian
        -omd          : optimize and do MD
        -siman        : conformational search
        -screen       : opt. loop over ensemble
        -gmd          : annealed MD for GMD procedure
        -modef        : vib mode following
        -gbsa [string1] [string2]
                        use GBSA implicit solvent
                        for solvent [string1] and
                        solvation state [string2]=
                        reference, bar1M (default=1M)
        additional GFN/opt/MD/siman options read from
        $XTBHOME/.xtbrc or $set in coordinate file
 
       spin and charge state information can be on:
       <.CHRG> (charge) and <.UHF> (=nalpha-nbeta)
       -uhf and -chrg override the file info.
       useful machine settings:
       setenv MKL_NUM_THREADS <NCORE_ON_YOUR_MACHINE>
       setenv OMP_STACKSIZE 500m
       limit stacksize unlimited
 
       total energies in Eh, gaps/HL energies in eV
       please read REVISION and HOWTO files carefully
          72  days left until this code expires
 =============================
  # OMP threads =           2
 =============================
 
 xtbhome directory:/home/ua25450/dftb/
 
 argument            1 :-ohess
 
 name of molecule           :
 comment line               :
 number of atoms            :    21
 number of electrons        :    44
 charge                     :  0
 spin                       : 0.0
 first test random number   :  0.0652
 
 
 -----------------------------------------
  G F N (Geometry, Frequency, Non-covalent)
        parametrization, gfnver=           3
     D4 dispersion model
 /home/ua25450/dftb/.param_gfn2.xtb
 -----------------------------------------
      method parameters     
 k(s)        :  1.8500
 k(p)        :  2.2300
 k(d)        :  2.2300
 k(f)        :  2.0000
 kEN (H0ij)  : -2.0000
 D3 a1       :  0.5200
 D3 a2       :  5.0000
 D3 s8       :  2.7000
 D3atm       :  5.0000
 alphaj      :  2.0000
 
     -------------------------
     ! NO SOLVENT MODEL USED !
     -------------------------
 
 doing EN charges ...
 sum q :  0.8881784D-15
 point charge moment (au)
     X       Y       Z   
   0.1471   0.2070  -0.0553  total (Debye):    0.661
 
            Z     q(EN)     CN     RAES       Cart. coordinates
     1  C   4.0   -0.13    4.02    3.65   -11.66946     2.09838    -0.02079
     2  H   1.0    0.04    1.00    1.43   -11.00532     0.15366    -0.06795
     3  H   1.0    0.04    1.00    1.43   -10.98891     3.05733    -1.70626
     4  H   1.0    0.04    1.00    1.43   -13.72432     2.07958    -0.07005
     5  C   4.0   -0.09    4.06    3.72   -10.72888     3.42891     2.35317
     6  H   1.0    0.04    1.01    1.43   -11.38191     5.38730     2.34556
     7  H   1.0    0.04    1.01    1.43    -8.66471     3.46033     2.34897
     8  C   4.0   -0.09    4.12    3.84   -11.65541     2.12672     4.75581
     9  H   1.0    0.04    1.01    1.43   -11.00313     0.16847     4.76447
    10  H   1.0    0.04    1.01    1.43   -13.71922     2.09587     4.76163
    11  C   4.0   -0.09    4.12    3.84   -10.71555     3.45469     7.13833
    12  H   1.0    0.04    1.01    1.43   -11.36686     5.41442     7.12910
    13  H   1.0    0.04    1.01    1.43    -8.65065     3.48616     7.13237
    14  C   4.0   -0.09    4.10    3.81   -11.64436     2.15042     9.53459
    15  H   1.0    0.05    1.01    1.43   -10.99191     0.19512     9.57851
    16  H   1.0    0.05    1.01    1.43   -13.70551     2.12177     9.57535
    17  C   4.0   -0.03    4.04    3.70   -10.70732     3.47411    11.91650
    18  H   1.0    0.04    1.00    1.43   -11.37211     5.44431    11.93204
    19  H   1.0    0.04    1.00    1.43    -8.62813     3.49600    11.93530
    20  O   6.0   -0.17    2.03    1.83   -11.64445     2.15782    14.03934
    21  H   1.0    0.11    1.02    1.43   -11.06454     2.97709    15.55587
 
  Z AO/shell   Hii/eV     exponent
  1     Wed Apr 25 08:07:45 CEST 2018   EN: 2.200 GM2: 0.406  GM3: 0.0800  RAES: 1.40
     1s    -10.707211    1.230000
  6     Wed Apr 25 08:07:45 CEST 2018   EN: 2.550 GM2: 0.538  GM3: 0.1500  RAES: 3.00
     2s    -13.970922    2.096432
     2p    -10.063292    1.800000
  8     Wed Apr 25 08:07:45 CEST 2018   EN: 3.440 GM2: 0.452  GM3:-0.0517  RAES: 1.80
     2s    -20.229985    2.439742
     2p    -15.503117    2.137023
 
Refinement of some symmetry elements was terminated before convergence was reached.
Some symmetry elements may remain unidentified.
Molecule has the following symmetry elements: (sigma) 
It seems to be the Cs point group
cs  symmetry found (for desy threshold:  0.10E+00) used in thermo
 no old-style atom pair restraing (fixing) potential
 
             =======================================
             |                                     |
             |        S C C  calculation           |
             |                                     |
             =======================================
 #proc     :            2
 Ncao      :           42
 Nao       :           42
 Nel       :           44
 T(el)     :   300.0
 intcut    :    25.0
 scfconv   :  0.100E-05
   qconv   :  0.100E-03
 intneglect:  0.100E-07
 broydamp  :      0.400
 Nshell    :           28
 iter      E             dE          RMSdq      gap      omega  full diag
   1    -24.3198356 -0.243198E+02  0.340E+00   12.04       0.0  T
   2    -24.3542053 -0.343697E-01  0.176E+00   11.97       1.0  T
   3    -24.3569017 -0.269641E-02  0.524E-01   11.78       1.0  T
   4    -24.3570889 -0.187181E-03  0.168E-01   11.86       1.0  T
   5    -24.3571502 -0.613643E-04  0.554E-02   11.91       1.0  T
   6    -24.3571559 -0.564833E-05  0.226E-02   11.91       1.0  T
   7    -24.3571563 -0.402759E-06  0.434E-03   11.91       5.0  T
   8    -24.3571563 -0.457258E-07  0.178E-03   11.91      12.3  T
   9    -24.3571563 -0.203296E-08  0.511E-04   11.91      42.7  T
  10    -24.3571563 -0.591033E-09  0.898E-05   11.91     243.1  T
speedup  1.00
cpu  time for SCC    0.01 s
wall time for SCC    0.01 s

          eigenvalues
 #    :          10         11         12         13         14         15         16         17
 occ. :        2.000      2.000      2.000      2.000      2.000      2.000      2.000      2.000
 eps  :       -14.029    -13.932    -13.286    -13.276    -13.082    -12.475    -12.372    -12.147
 #    :          18         19         20         21         22         23         24         25
 occ. :        2.000      2.000      2.000      2.000      2.000      0.000      0.000      0.000
 eps  :       -11.764    -11.717    -11.591    -11.440    -11.073      0.841      2.321      2.975
 #    :          26         27         28         29         30         31         32         33
 occ. :        0.000      0.000      0.000      0.000      0.000      0.000      0.000      0.000
 eps  :         3.098      3.416      3.627      4.062      4.083      4.452      4.835      5.109
 

   #   Z            q   n(s)   n(p)   n(d)      C6AA      α(0)    relVol
   1   6 C     -0.103  1.037  3.066  0.000    22.665     6.809     0.551
   2   1 H      0.034  0.966  0.000  0.000     2.521     2.483     0.491
   3   1 H      0.034  0.966  0.000  0.000     2.532     2.488     0.492
   4   1 H      0.034  0.966  0.000  0.000     2.521     2.483     0.491
   5   6 C     -0.053  1.048  3.005  0.000    21.615     6.631     0.537
   6   1 H      0.029  0.971  0.000  0.000     2.594     2.518     0.498
   7   1 H      0.029  0.971  0.000  0.000     2.594     2.518     0.498
   8   6 C     -0.060  1.052  3.008  0.000    21.701     6.637     0.537
   9   1 H      0.034  0.966  0.000  0.000     2.532     2.488     0.492
  10   1 H      0.033  0.967  0.000  0.000     2.532     2.488     0.492
  11   6 C     -0.061  1.052  3.009  0.000    21.722     6.641     0.537
  12   1 H      0.030  0.970  0.000  0.000     2.583     2.513     0.497
  13   1 H      0.030  0.970  0.000  0.000     2.583     2.513     0.497
  14   6 C     -0.065  1.051  3.014  0.000    21.806     6.656     0.539
  15   1 H      0.048  0.952  0.000  0.000     2.330     2.387     0.472
  16   1 H      0.048  0.952  0.000  0.000     2.330     2.387     0.472
  17   6 C      0.089  1.035  2.876  0.000    19.445     6.342     0.513
  18   1 H      0.013  0.987  0.000  0.000     2.835     2.633     0.521
  19   1 H      0.013  0.987  0.000  0.000     2.835     2.633     0.521
  20   8 O     -0.443  1.708  4.735  0.000    22.204     6.375     1.227
  21   1 H      0.285  0.715  0.000  0.000     0.709     1.322     0.262

 Mol. C6AA /au*bohr^6 :       2922.471884
 Mol. C8AA /au*bohr^6 :      60295.339449
 Mol. a(0) /au        :         79.945941

 
 Wiberg/Mayer (AO) data. WBOs > 0.1 written file <wbo>
 largest (>0.05) Wiberg bond orders for each atom
           total WBO             WBO to atom ...
     1  C   3.997    C    5 1.019    H    2 0.988    H    4 0.988    H    3 0.987
     2  H   0.999    C    1 0.988
     3  H   0.999    C    1 0.987
     4  H   0.999    C    1 0.988
     5  C   3.998    C    1 1.019    C    8 1.008    H    6 0.979    H    7 0.979
     6  H   0.999    C    5 0.979
     7  H   0.999    C    5 0.979
     8  C   3.997    C    5 1.008    C   11 1.007    H    9 0.977    H   10 0.977
     9  H   0.999    C    8 0.977
    10  H   0.999    C    8 0.977
    11  C   3.997    C   14 1.007    C    8 1.007    H   13 0.977    H   12 0.977
    12  H   0.999    C   11 0.977
    13  H   0.999    C   11 0.977
    14  C   3.994    C   11 1.007    C   17 1.004    H   15 0.976    H   16 0.976
    15  H   0.998    C   14 0.976
    16  H   0.998    C   14 0.976
    17  C   3.957    C   14 1.004    O   20 0.994    H   19 0.972    H   18 0.972
    18  H   1.000    C   17 0.972
    19  H   1.000    C   17 0.972
    20  O   1.951    C   17 0.994    H   21 0.905
    21  H   0.919    O   20 0.905
 
molecular dipole:
                 x           y           z       tot (Debye)
 q only:        0.239       0.336      -0.120
   full:        0.662       0.540      -0.004       1.683
molecular quadrupole (traceless):
                xx          xy          yy          xz          yz          zz
 q only:       -6.401      -4.579       4.470       7.460       7.160       1.931
  q+dip:      -10.023      -8.731       6.484       8.611      12.003       3.539
   full:      -10.917      -8.077       6.046       8.562      11.939       4.871
 SCC converged in           10  cycles
 
SCC energy    :     -24.3571563
rep           :       0.3078799
ES            :       0.0273920
AES           :       0.0062667
AXC           :       0.0094362
disp          :      -0.0112762
XB            :       0.0000000
fix           :       0.0000000
total E       :     -24.0493214
atomizationE  :       5.0375006     3161.08
(atE without considerung molecular charge,
 total energy contains solvation terms)
H-L gap (eV)  :         11.9142
 
             =======================================
             |                                     |
             |    Approximate Normal Coordinate    |
             |   Rational Function Optimization    |
             |                                     |
             =======================================
Ref. for RF algo: F.Eckert, P.Pulay, H.-J.Werner
                  J.Comput.Chem. 18 (1997) 1473.
ANC idea implemented by S. Grimme in the 2000ers (unpublished)
restraining potential by S. Ehrlich.
dumping coords to <xtbopt.coord> and <xtbopt.log
 optlevel               1
 Maxcycle             200
 Maxmicro              20
 Econv         1.000000000000000E-006
 Gconv         8.000000000000000E-004
 Maxdispl       1.00000000000000     
 Hlow          1.000000000000000E-002
 S6             20.0000000000000     
 Nvar               57

generating ANC from model Hessian ...
 Shifting diagonal of input Hessian by   8.535984258879636E-003
 Lowest  eigenvalues of input Hessian
   -0.000000   -0.000000   -0.000000    0.000000    0.000000    0.000000
    0.010000    0.010572    0.011450    0.014358    0.016073    0.017261
    0.019744    0.021430    0.028263    0.038596    0.042734    0.048436
 Highest eigenvalues
    1.207098    1.218538    1.242578    1.278049    1.306197    1.506032
 
cpu  time for ANC gen    0.01 s
wall time for ANC gen    0.01 s
................................................................................
.............................. CYCLE    1 ......................................
................................................................................
  q data taken from xtbrestart
  CAMM data taken from xtbrestart
   1    -24.3571563 -0.243572E+02  0.272E-05   11.91       0.0  T
   2    -24.3571563 -0.323297E-11  0.156E-05   11.91    1394.9  T
   3    -24.3571563 -0.405009E-12  0.807E-06   11.91    2703.8  T
speedup  1.00
cpu  time for SCC    0.00 s
wall time for SCC    0.00 s
speedup  1.00
cpu  time for grad    0.00 s
wall time for grad    0.00 s
 E :    -24.04932145  G :  0.000309    pred/act E change:  0.000D+00  0.350D-09
Maxdispl :   0.0044   ||displ|| :   0.0047   Lambda : -0.398D-06
Largest |displ|/coords:  0.0044 (   2)  0.0011 (   6)  0.0011 (   8)
................................................................................
.............................. CYCLE    2 ......................................
................................................................................
   1    -24.3570703 -0.243571E+02  0.200E-03   11.91       0.0  T
   2    -24.3570703 -0.836181E-09  0.118E-03   11.91      18.5  T
   3    -24.3570703 -0.100865E-09  0.914E-05   11.91     238.7  T
   4    -24.3570703 -0.334524E-10  0.361E-05   11.91     604.3  T
speedup  1.00
cpu  time for SCC    0.01 s
wall time for SCC    0.01 s
speedup  1.00
cpu  time for grad    0.01 s
wall time for grad    0.01 s
 E :    -24.04932177  G :  0.000166    pred/act E change:  0.000D+00 -0.326D-06
Maxdispl :   0.0131   ||displ|| :   0.0135   Lambda : -0.680D-06
Largest |displ|/coords:  0.0131 (   2)  0.0025 (   6)  0.0020 (   8)
ancopt converged in          2 cycles
total energy gain (kcal):     -0.0002
================
 final structure:
================
    21
        -24.04932177
C          -6.17542968629368    1.11010302423451   -0.01087246698192
H          -5.82406663219752    0.08088907410500   -0.03538889922545
H          -5.81556308011894    1.61706662834297   -0.90322424949077
H          -7.26289485117369    1.10015621801756   -0.03656911246748
C          -5.67733829006336    1.81469672283006    1.24499286365366
H          -6.02298930082001    2.85105271629806    1.24066468578690
H          -4.58497970657646    1.83125703474604    1.24246991147230
C          -6.16744556781767    1.12587532609678    2.51661784949307
H          -5.82219089573570    0.08959243890787    2.52126282755370
H          -7.25961373725113    1.10958998102976    2.51975284740793
C          -5.67016075974736    1.82854381658381    3.77748281679658
H          -6.01490674739466    2.86560280215198    3.77274606224326
H          -4.57742110219246    1.84514226726994    3.77448701644920
C          -6.16185961577959    1.13807531822642    5.04539153574142
H          -5.81652705604778    0.10333804133029    5.06838164195615
H          -7.25263017152882    1.12295669194007    5.06672113387083
C          -5.66618518283910    1.83825849687219    6.30603058344756
H          -6.01820537315212    2.88077421650395    6.31456636469389
H          -4.56591450258295    1.84963389026125    6.31625820663907
O          -6.16223020778042    1.14144008265089    7.42928992670657
H          -5.85538449290658    1.57496165160064    8.23180866425352
 
 Bond Distances (Angstroems)
 ---------------------------
C1-H2=1.0878         C1-H3=1.0876         C1-H4=1.0878         C1-C5=1.5237         H2-C1=1.0878         H3-C1=1.0876         
H4-C1=1.0878         C5-C1=1.5237         C5-H6=1.0925         C5-H7=1.0925         C5-C8=1.5270         H6-C5=1.0925         
H7-C5=1.0925         C8-C5=1.5270         C8-H9=1.0923         C8-H10=1.0923        C8-C11=1.5267        H9-C8=1.0923         
H10-C8=1.0923        C11-C8=1.5267        C11-H12=1.0929       C11-H13=1.0929       C11-C14=1.5252       H12-C11=1.0929       
H13-C11=1.0929       C14-C11=1.5252       C14-H15=1.0911       C14-H16=1.0911       C14-C17=1.5248       H15-C14=1.0911       
H16-C14=1.0911       C17-C14=1.5248       C17-H18=1.1004       C17-H19=1.1004       C17-O20=1.4119       H18-C17=1.1004       
H19-C17=1.1004       O20-C17=1.4119       O20-H21=0.9624       H21-O20=0.9624       
 C  H  Rav=1.0924 sigma=0.0039  Rmin=1.0876  Rmax=1.1004    13
 C  C  Rav=1.5255 sigma=0.0012  Rmin=1.5237  Rmax=1.5270     5
 O  H  Rav=0.9624 sigma=0.0000  Rmin=0.9624  Rmax=0.9624     1
 O  C  Rav=1.4119 sigma=0.0000  Rmin=1.4119  Rmax=1.4119     1
 
 selected bond angles (degree)
 --------------------
H3-C1-H2=108.40                H4-C1-H2=108.28                H4-C1-H3=108.40                C5-C1-H2=110.52                
C5-C1-H3=110.64                C5-C1-H4=110.52                H6-C5-C1=109.39                H7-C5-C1=109.39                
H7-C5-H6=107.58                C8-C5-C1=111.89                C8-C5-H6=109.25                C8-C5-H7=109.25                
H9-C8-C5=109.27                H10-C8-C5=109.27               H10-C8-H9=107.57               C11-C8-C5=112.06               
C11-C8-H9=109.28               C11-C8-H10=109.28              
 
 selected dihedral angles (degree)
 ---------------------------------
H6-C5-C1-H2=178.84            H6-C5-C1-H3= 58.76            H6-C5-C1-H4=298.69            H7-C5-C1-H2= 61.24            
H7-C5-C1-H3=301.17            H7-C5-C1-H4=181.09            C8-C5-C1-H2=300.04            C8-C5-C1-H3=179.96            
C8-C5-C1-H4= 59.89            H9-C8-C5-C1= 58.71            H9-C8-C5-H6=179.99            H9-C8-C5-H7=297.43            
H10-C8-C5-C1=301.25           H10-C8-C5-H6= 62.54           H10-C8-C5-H7=179.97           C11-C8-C5-C1=179.98           
C11-C8-C5-H6=301.26           C11-C8-C5-H7= 58.70           
 
             =======================================
             |                                     |
             |        S C C  calculation           |
             |                                     |
             =======================================
 #proc     :            2
 Ncao      :           42
 Nao       :           42
 Nel       :           44
 T(el)     :   300.0
 intcut    :    25.0
 scfconv   :  0.100E-05
   qconv   :  0.100E-03
 intneglect:  0.100E-07
 broydamp  :      0.400
 Nshell    :           28
 iter      E             dE          RMSdq      gap      omega  full diag
   1    -24.3570703 -0.243571E+02  0.103E-05   11.91       0.0  T
   2    -24.3570703 -0.188294E-12  0.592E-06   11.91    3688.8  T
   3    -24.3570703  0.355271E-14  0.230E-06   11.91    9502.8  T
speedup  1.00
cpu  time for SCC    0.01 s
wall time for SCC    0.01 s

          eigenvalues
 #    :          10         11         12         13         14         15         16         17
 occ. :        2.000      2.000      2.000      2.000      2.000      2.000      2.000      2.000
 eps  :       -14.029    -13.932    -13.286    -13.276    -13.082    -12.475    -12.372    -12.147
 #    :          18         19         20         21         22         23         24         25
 occ. :        2.000      2.000      2.000      2.000      2.000      0.000      0.000      0.000
 eps  :       -11.764    -11.718    -11.591    -11.440    -11.074      0.839      2.320      2.974
 #    :          26         27         28         29         30         31         32         33
 occ. :        0.000      0.000      0.000      0.000      0.000      0.000      0.000      0.000
 eps  :         3.097      3.415      3.626      4.060      4.082      4.449      4.833      5.107
 

   #   Z            q   n(s)   n(p)   n(d)      C6AA      α(0)    relVol
   1   6 C     -0.103  1.037  3.066  0.000    22.664     6.809     0.551
   2   1 H      0.034  0.966  0.000  0.000     2.522     2.483     0.491
   3   1 H      0.034  0.966  0.000  0.000     2.532     2.488     0.492
   4   1 H      0.034  0.966  0.000  0.000     2.522     2.483     0.491
   5   6 C     -0.053  1.048  3.005  0.000    21.615     6.631     0.537
   6   1 H      0.029  0.971  0.000  0.000     2.594     2.518     0.498
   7   1 H      0.029  0.971  0.000  0.000     2.594     2.518     0.498
   8   6 C     -0.060  1.052  3.008  0.000    21.701     6.637     0.537
   9   1 H      0.034  0.966  0.000  0.000     2.532     2.488     0.492
  10   1 H      0.033  0.967  0.000  0.000     2.532     2.488     0.492
  11   6 C     -0.061  1.052  3.009  0.000    21.722     6.641     0.537
  12   1 H      0.030  0.970  0.000  0.000     2.583     2.513     0.497
  13   1 H      0.030  0.970  0.000  0.000     2.583     2.513     0.497
  14   6 C     -0.065  1.051  3.014  0.000    21.806     6.656     0.539
  15   1 H      0.048  0.952  0.000  0.000     2.331     2.387     0.472
  16   1 H      0.048  0.952  0.000  0.000     2.331     2.387     0.472
  17   6 C      0.089  1.035  2.876  0.000    19.445     6.342     0.513
  18   1 H      0.013  0.987  0.000  0.000     2.835     2.633     0.521
  19   1 H      0.013  0.987  0.000  0.000     2.835     2.633     0.521
  20   8 O     -0.443  1.708  4.735  0.000    22.205     6.375     1.227
  21   1 H      0.285  0.715  0.000  0.000     0.709     1.322     0.262

 Mol. C6AA /au*bohr^6 :       2922.468307
 Mol. C8AA /au*bohr^6 :      60295.313022
 Mol. a(0) /au        :         79.945918

 
 Wiberg/Mayer (AO) data. WBOs > 0.1 written file <wbo>
 largest (>0.05) Wiberg bond orders for each atom
           total WBO             WBO to atom ...
     1  C   3.997    C    5 1.019    H    2 0.988    H    4 0.988    H    3 0.987
     2  H   0.999    C    1 0.988
     3  H   0.999    C    1 0.987
     4  H   0.999    C    1 0.988
     5  C   3.998    C    1 1.019    C    8 1.008    H    6 0.979    H    7 0.979
     6  H   0.999    C    5 0.979
     7  H   0.999    C    5 0.979
     8  C   3.997    C    5 1.008    C   11 1.007    H    9 0.977    H   10 0.977
     9  H   0.999    C    8 0.977
    10  H   0.999    C    8 0.977
    11  C   3.997    C   14 1.007    C    8 1.007    H   13 0.977    H   12 0.977
    12  H   0.999    C   11 0.977
    13  H   0.999    C   11 0.977
    14  C   3.994    C   11 1.007    C   17 1.004    H   15 0.976    H   16 0.976
    15  H   0.998    C   14 0.976
    16  H   0.998    C   14 0.976
    17  C   3.957    C   14 1.004    O   20 0.994    H   18 0.972    H   19 0.972
    18  H   1.000    C   17 0.972
    19  H   1.000    C   17 0.972
    20  O   1.950    C   17 0.994    H   21 0.905
    21  H   0.919    O   20 0.905
 
molecular dipole:
                 x           y           z       tot (Debye)
 q only:        0.239       0.336      -0.120
   full:        0.383       0.540      -0.005       1.683
molecular quadrupole (traceless):
                xx          xy          yy          xz          yz          zz
 q only:       -6.403      -4.582       4.473       7.462       7.163       1.930
  q+dip:      -10.022      -8.735       6.483       8.613      12.006       3.539
   full:      -10.917      -8.081       6.046       8.564      11.941       4.870
 SCC converged in            3  cycles
 
SCC energy    :     -24.3570703
rep           :       0.3077936
ES            :       0.0273960
AES           :       0.0062676
AXC           :       0.0094413
disp          :      -0.0112760
XB            :       0.0000000
fix           :       0.0000000
total E       :     -24.0493218
atomizationE  :       5.0375009     3161.08
(atE without considerung molecular charge,
 total energy contains solvation terms)
H-L gap (eV)  :         11.9124
 !!!!!!!!!!!!!!!!!!!!!!!!!!!!!!!!!!!
 ! Note: the input coordinates are !
 ! NOT overwritten. The optimized  !
 ! ones are on file <xtbopt.coord> !
 ! (or on <xtbopt.xyz> if it was a !
 ! xyz file)                       !
 !!!!!!!!!!!!!!!!!!!!!!!!!!!!!!!!!!!
 
Refinement of some symmetry elements was terminated before convergence was reached.
Some symmetry elements may remain unidentified.
Molecule has the following symmetry elements: (sigma) 
It seems to be the Cs point group
cs  symmetry found (for desy threshold:  0.10E+00) used in thermo
  q data taken from xtbrestart
  CAMM data taken from xtbrestart
 
             =======================================
             |                                     |
             |         Numerical Hessian           |
             |                                     |
             =======================================
step length          :   0.00500
SCC accuracy         :   0.30000
Hessian scale factor :   1.00000
frozen atoms in %    :   0.00000    0
RMS gradient         :   0.00017
estimated CPU  time      0.03 min
estimated wall time      0.03 min
 
 writing file <hessian>.
 
 projected vibrational frequencies (cm-1)
eig.   :       -0.00    -0.00    -0.00    -0.00     0.00     0.00
eig.   :       56.88    73.21   103.63   124.15   133.26   233.40
eig.   :      253.67   290.32   306.28   424.86   487.53   770.60
eig.   :      786.99   836.88   913.75   939.55   995.10  1023.52
eig.   :     1052.66  1088.11  1103.50  1112.84  1129.49  1163.23
eig.   :     1207.56  1208.60  1248.26  1259.20  1268.84  1286.00
eig.   :     1289.69  1306.39  1353.32  1377.24  1383.56  1416.24
eig.   :     1492.78  1494.25  1497.30  1498.90  1502.81  1504.50
eig.   :     1507.60  2849.04  2882.72  2956.17  2961.68  2973.78
eig.   :     2975.63  2977.81  2985.80  2990.25  3001.20  3031.31
eig.   :     3033.04  3038.04  3565.25
 reduced masses (amu)
   1: 11.10   2: 10.72   3:  9.93   4: 10.34   5: 11.77   6:  7.88   7: 10.11   8:  6.56
   9: 10.46  10:  7.84  11:  6.76  12:  2.16  13:  9.46  14:  2.13  15: 11.65  16:  8.94
  17: 10.32  18:  1.63  19:  2.00  20:  2.53  21:  2.71  22:  6.21  23:  2.12  24:  8.27
  25: 11.29  26: 10.38  27:  8.38  28:  9.01  29:  7.53  30:  5.11  31:  3.53  32:  5.55
  33:  3.55  34:  3.75  35:  1.46  36:  2.43  37:  2.03  38:  3.95  39:  4.45  40:  5.54
  41:  4.89  42:  3.18  43:  1.94  44:  1.87  45:  1.84  46:  2.01  47:  1.79  48:  1.53
  49:  1.66  50:  1.97  51:  1.42  52:  1.91  53:  1.96  54:  1.47  55:  2.03  56:  1.44
  57:  1.52  58:  2.02  59:  1.50  60:  1.96  61:  1.94  62:  1.26  63:  1.88
 IR intensities (amu)
   1:  0.08   2:  0.23   3:  0.17   4:  0.12   5:  0.28   6:  0.19   7:  0.30   8:  0.32
   9:  0.19  10:  0.18  11:  0.17  12:  0.02  13:  0.19  14:  0.49  15:  0.22  16:  0.14
  17:  0.25  18:  0.03  19:  0.06  20:  0.07  21:  0.13  22:  0.08  23:  0.06  24:  0.12
  25:  0.57  26:  0.90  27:  0.15  28:  0.46  29:  0.24  30:  0.31  31:  0.24  32:  0.06
  33:  0.09  34:  0.31  35:  0.02  36:  0.02  37:  0.01  38:  0.26  39:  0.13  40:  0.04
  41:  0.26  42:  0.03  43:  0.06  44:  0.09  45:  0.05  46:  0.04  47:  0.08  48:  0.03
  49:  0.02  50:  0.39  51:  0.31  52:  0.12  53:  0.02  54:  0.09  55:  0.36  56:  0.07
  57:  0.31  58:  0.39  59:  0.29  60:  0.29  61:  0.28  62:  0.18  63:  0.15
 output can be read by thermo (or use thermo option).
 writing <g98.out> molden fake output.
 recommended (thermochemical) frequency scaling factor: 1.0
                    ==================
                    thermo calculation
                    ==================
Nvib :   57 Nimag : 0  symmetry :   cs  rot number :  1  scale factor : 1.00 sthr :  50.
omega= 56.88     Gvib=    -1.360     Grot=    -1.018     Gused=    -1.232
omega= 73.21     Gvib=    -1.212     Grot=    -0.943     Gused=    -1.164
omega=103.63     Gvib=    -1.009     Grot=    -0.841     Gused=    -1.001
omega=124.15     Gvib=    -0.905     Grot=    -0.787     Gused=    -0.902
omega=133.26     Gvib=    -0.864     Grot=    -0.766     Gused=    -0.862
omega=233.40     Gvib=    -0.552     Grot=    -0.600     Gused=    -0.552
omega=253.67     Gvib=    -0.508     Grot=    -0.575     Gused=    -0.508
omega=290.32     Gvib=    -0.439     Grot=    -0.535     Gused=    -0.439
 
   temp. (K)  partition function   enthalpy   heat capacity  entropy
                                   cal/mol     cal/K/mol   cal/K/mol   J/K/mol
 298.15  VIB   894.                 4254.468     26.946     27.139
         ROT  0.335E+06              888.752      2.981     28.261
         INT  0.299E+09             5143.220     29.927     55.401
         TR   0.999E+27             1481.254      4.968     39.764
         TOT                        6624.4738    34.8949    95.1647   398.1675
                     Eh         kcal/mol          kJ/mol 
ZPVE            0.190747         119.695         500.804    
H(0)-H(T)+PV    0.105568E-01     6.62447         27.7167    
H(T)            0.201304         126.320         528.521    
T*S             0.452158E-01     28.3734         118.714    
G(T)            0.156088         97.9466         409.807    
    -23.89323391  <=== TOTAL FREE ENERGY in Eh incl. el.,ZPVE,RRHO,solv. parts
 
Eat (element increment corrected) /kcal :  2309.003
        -368.356  <=== HOF(298)/kcal, to be compared to exptl. data
 
 normal mode %tage of torsion character
   1:  0.00   2:  0.00   3:  0.00   4:  0.00   5:  0.00   6:  0.00   7:  0.50   8:  0.55
   9:  0.26  10:  0.70  11:  0.68  12:  0.85  13:  0.19  14:  0.97  15:  0.19  16:  0.08
  17:  0.07  18:  0.55  19:  0.46  20:  0.49  21:  0.46  22:  0.26  23:  0.34  24:  0.11
  25:  0.14  26:  0.12  27:  0.04  28:  0.06  29:  0.18  30:  0.77  31:  0.07  32:  0.45
  33:  0.29  34:  0.07  35:  0.13  36:  0.16  37:  0.07  38:  0.08  39:  0.08  40:  0.06
  41:  0.03  42:  0.46  43:  0.64  44:  0.59  45:  0.57  46:  0.57  47:  0.60  48:  0.30
  49:  0.24  50:  0.10  51:  0.00  52:  0.33  53:  0.26  54:  0.01  55:  0.06  56:  0.01
  57:  0.01  58:  0.11  59:  0.01  60:  0.10  61:  0.12  62:  0.03  63:  0.00
 recommended # of modes for mode following           4
 
speedup  0.99
cpu  time for all    1.53 s
wall time for all    1.54 s
