 Entering Gaussian System
 *********************************************
 Gaussian 98:
 frequency output generated by the xtb code
 *********************************************
                         Standard orientation:
 --------------------------------------------------------------------
  Center     Atomic     Atomic              Coordinates (Angstroms)
  Number     Number      Type              X           Y           Z
 --------------------------------------------------------------------
    1          6             0       -6.175424    1.110135   -0.010853
    2          1             0       -5.824066    0.080920   -0.035369
    3          1             0       -5.815558    1.617095   -0.903207
    4          1             0       -7.262889    1.100194   -0.036546
    5          6             0       -5.677324    1.814729    1.245009
    6          1             0       -6.022970    2.851086    1.240681
    7          1             0       -4.584966    1.831283    1.242483
    8          6             0       -6.167431    1.125912    2.516637
    9          1             0       -5.822181    0.089627    2.521283
   10          1             0       -7.259599    1.109632    2.519776
   11          6             0       -5.670138    1.828580    3.777499
   12          1             0       -6.014878    2.865641    3.772762
   13          1             0       -4.577398    1.845173    3.774500
   14          6             0       -6.161836    1.138116    5.045411
   15          1             0       -5.816509    0.103377    5.068402
   16          1             0       -7.252606    1.123003    5.066744
   17          6             0       -5.666153    1.838299    6.306047
   18          1             0       -6.018168    2.880817    6.314582
   19          1             0       -4.565883    1.849669    6.316271
   20          8             0       -6.162198    1.141485    7.429309
   21          1             0       -5.855347    1.575007    8.231826
 --------------------------------------------------------------------
     1 basis functions        1 primitive gaussians
     1 alpha electrons        1 beta electrons
 
 Harmonic frequencies (cm**-1), IR intensities (KM/Mole),
 Raman scattering activities (A**4/amu), Raman depolarization ratios,
 reduced masses (AMU), force constants (mDyne/A) and normal coordinates:
                      1                      2                      3
                        a                      a                      a 
 Frequencies --    56.8773                73.2142               103.6320
 Red. masses --    10.1056                 6.5578                10.4565
 Frc consts  --     0.0000                 0.0000                 0.0000
 IR Inten    --     0.3024                 0.3247                 0.1913
 Raman Activ --     0.0000                 0.0000                 0.0000
 Depolar     --     0.0000                 0.0000                 0.0000
 Atom AN      X      Y      Z        X      Y      Z        X      Y      Z
   1   6     0.31  -0.22   0.00     0.20  -0.14   0.00    -0.24  -0.33   0.15
   2   1     0.07  -0.08   0.08     0.26   0.03   0.01    -0.07  -0.10   0.10
   3   1     0.17  -0.12   0.00    -0.03   0.02  -0.00    -0.12  -0.17  -0.02
   4   1     0.09  -0.04  -0.08     0.06  -0.25  -0.01    -0.07  -0.10   0.10
   5   6     0.08  -0.06  -0.00    -0.30   0.21  -0.00    -0.01  -0.01  -0.12
   6   1     0.05  -0.01  -0.07    -0.26   0.00  -0.02    -0.00  -0.00  -0.09
   7   1     0.02  -0.05   0.07    -0.09   0.24   0.02    -0.00  -0.00  -0.09
   8   6    -0.28   0.20  -0.00     0.01  -0.01   0.00     0.17   0.23   0.07
   9   1    -0.15   0.04   0.04     0.08   0.02  -0.03     0.05   0.07   0.05
  10   1    -0.08   0.13  -0.04     0.00  -0.08   0.03     0.05   0.06   0.05
  11   6    -0.28   0.20  -0.00    -0.01   0.01   0.00     0.23   0.33  -0.00
  12   1    -0.07   0.06  -0.00     0.01   0.01  -0.01     0.06   0.09  -0.00
  13   1    -0.08   0.04   0.00    -0.00  -0.01   0.01     0.07   0.09  -0.00
  14   6    -0.30   0.21  -0.00    -0.08   0.06  -0.00     0.17   0.23  -0.08
  15   1    -0.14   0.04  -0.04    -0.14  -0.02  -0.05     0.05   0.07  -0.05
  16   1    -0.09   0.12   0.04    -0.02   0.14   0.05     0.05   0.06  -0.05
  17   6     0.03  -0.02   0.00     0.36  -0.25   0.00    -0.01  -0.02   0.12
  18   1     0.01  -0.01   0.08     0.32  -0.00  -0.02    -0.01  -0.01   0.09
  19   1     0.01  -0.01  -0.08     0.10  -0.30   0.02    -0.00  -0.01   0.09
  20   8     0.38  -0.27  -0.00    -0.23   0.17  -0.00    -0.26  -0.36  -0.17
  21   1     0.15  -0.11   0.00     0.03  -0.02   0.00    -0.11  -0.15   0.01
                      4                      5                      6
                        a                      a                      a 
 Frequencies --   124.1536               133.2612               233.4044
 Red. masses --     7.8367                 6.7646                 2.1641
 Frc consts  --     0.0000                 0.0000                 0.0000
 IR Inten    --     0.1758                 0.1714                 0.0157
 Raman Activ --     0.0000                 0.0000                 0.0000
 Depolar     --     0.0000                 0.0000                 0.0000
 Atom AN      X      Y      Z        X      Y      Z        X      Y      Z
   1   6    -0.12   0.08  -0.00    -0.15   0.11  -0.00     0.04  -0.03   0.00
   2   1     0.05   0.05  -0.08    -0.17  -0.01  -0.03    -0.37  -0.14   0.30
   3   1    -0.14   0.10  -0.00    -0.00   0.00   0.00     0.45  -0.32   0.00
   4   1    -0.03  -0.06   0.08    -0.05   0.16   0.02     0.01   0.39  -0.30
   5   6    -0.01   0.01   0.00     0.22  -0.16   0.00    -0.22   0.16  -0.00
   6   1    -0.07  -0.02   0.06     0.13  -0.02   0.05    -0.16   0.01   0.00
   7   1    -0.00   0.07  -0.06     0.06  -0.11  -0.05    -0.06   0.15  -0.00
   8   6     0.34  -0.24   0.00     0.26  -0.18   0.00     0.11  -0.08   0.00
   9   1     0.20  -0.04  -0.02     0.22  -0.00   0.07     0.13   0.01  -0.04
  10   1     0.10  -0.17   0.02     0.08  -0.21  -0.07     0.03  -0.12   0.04
  11   6     0.17  -0.12   0.00    -0.39   0.28  -0.00     0.08  -0.06  -0.00
  12   1     0.13  -0.01  -0.09    -0.32   0.01  -0.04     0.04  -0.01  -0.01
  13   1     0.05  -0.12   0.09    -0.12   0.29   0.04     0.02  -0.03   0.01
  14   6    -0.42   0.29  -0.00    -0.07   0.05   0.00    -0.02   0.01   0.00
  15   1    -0.28   0.03   0.05    -0.01   0.02  -0.08    -0.03  -0.00   0.01
  16   1    -0.12   0.26  -0.05    -0.02   0.00   0.08    -0.01   0.03  -0.01
  17   6    -0.16   0.12  -0.00     0.20  -0.14   0.00    -0.01   0.01   0.00
  18   1    -0.06   0.03   0.08     0.17  -0.00   0.00    -0.01   0.00   0.00
  19   1    -0.05   0.05  -0.08     0.06  -0.16  -0.00    -0.00   0.00  -0.00
  20   8     0.20  -0.14   0.00    -0.08   0.06   0.00     0.01  -0.01  -0.00
  21   1     0.10  -0.07   0.00     0.05  -0.04   0.00     0.00  -0.00   0.00
                      7                      8                      9
                        a                      a                      a 
 Frequencies --   253.6718               290.3178               306.2842
 Red. masses --     9.4560                 2.1308                11.6543
 Frc consts  --     0.0000                 0.0000                 0.0000
 IR Inten    --     0.1924                 0.4855                 0.2159
 Raman Activ --     0.0000                 0.0000                 0.0000
 Depolar     --     0.0000                 0.0000                 0.0000
 Atom AN      X      Y      Z        X      Y      Z        X      Y      Z
   1   6    -0.12  -0.17   0.23     0.00  -0.00   0.00     0.03   0.05   0.45
   2   1    -0.04  -0.05   0.16     0.00  -0.00   0.00     0.01   0.01   0.15
   3   1    -0.11  -0.16  -0.02     0.00  -0.00   0.00    -0.01  -0.01   0.11
   4   1    -0.04  -0.05   0.16     0.00  -0.00   0.00     0.01   0.01   0.15
   5   6     0.18   0.25  -0.13    -0.00   0.00   0.00     0.03   0.05   0.39
   6   1     0.05   0.07  -0.08    -0.00   0.00  -0.00     0.01   0.01   0.13
   7   1     0.05   0.07  -0.08    -0.00   0.00   0.00     0.01   0.01   0.13
   8   6     0.20   0.29  -0.10    -0.00   0.00  -0.00    -0.07  -0.10   0.18
   9   1     0.06   0.08  -0.06    -0.01  -0.00  -0.01    -0.02  -0.03   0.05
  10   1     0.06   0.08  -0.06    -0.00   0.01   0.00    -0.02  -0.03   0.05
  11   6    -0.01  -0.02   0.12     0.03  -0.02   0.00    -0.02  -0.02  -0.01
  12   1    -0.00  -0.00   0.10     0.00  -0.01   0.01    -0.01  -0.01  -0.01
  13   1    -0.00  -0.00   0.10     0.01  -0.00  -0.01    -0.01  -0.01  -0.01
  14   6    -0.23  -0.32  -0.10     0.07  -0.05  -0.00    -0.03  -0.04  -0.15
  15   1    -0.06  -0.09  -0.06     0.07   0.00   0.01    -0.01  -0.01  -0.03
  16   1    -0.07  -0.09  -0.06     0.02  -0.07  -0.01    -0.01  -0.01  -0.03
  17   6    -0.15  -0.22  -0.19    -0.09   0.07  -0.00     0.05   0.08  -0.34
  18   1    -0.04  -0.06  -0.12    -0.04   0.02  -0.01     0.02   0.02  -0.10
  19   1    -0.04  -0.06  -0.12    -0.03   0.03   0.01     0.02   0.02  -0.10
  20   8     0.15   0.20   0.20    -0.20   0.14  -0.00     0.00   0.00  -0.55
  21   1     0.10   0.15  -0.03     0.78  -0.55   0.00    -0.03  -0.03  -0.11
                     10                     11                     12
                        a                      a                      a 
 Frequencies --   424.8569               487.5344               770.5956
 Red. masses --     8.9439                10.3199                 1.6311
 Frc consts  --     0.0000                 0.0000                 0.0000
 IR Inten    --     0.1374                 0.2528                 0.0329
 Raman Activ --     0.0000                 0.0000                 0.0000
 Depolar     --     0.0000                 0.0000                 0.0000
 Atom AN      X      Y      Z        X      Y      Z        X      Y      Z
   1   6    -0.04  -0.05   0.17    -0.03  -0.04  -0.28    -0.01   0.00  -0.00
   2   1    -0.02  -0.02   0.15    -0.00  -0.01  -0.13     0.08   0.03   0.07
   3   1    -0.09  -0.13  -0.05     0.03   0.04  -0.04     0.02  -0.02  -0.00
   4   1    -0.01  -0.02   0.15    -0.01  -0.01  -0.13     0.00  -0.08  -0.07
   5   6     0.20   0.28  -0.13    -0.06  -0.08  -0.14    -0.08   0.06  -0.00
   6   1     0.05   0.08  -0.04    -0.01  -0.02  -0.08     0.26   0.10  -0.05
   7   1     0.06   0.07  -0.04    -0.02  -0.02  -0.08    -0.01  -0.28   0.05
   8   6    -0.03  -0.04  -0.34     0.15   0.21   0.19    -0.12   0.08  -0.00
   9   1    -0.01  -0.01  -0.18     0.04   0.06   0.07     0.37   0.15   0.01
  10   1    -0.01  -0.01  -0.18     0.04   0.05   0.07    -0.02  -0.40  -0.01
  11   6    -0.24  -0.34  -0.07    -0.04  -0.05   0.45    -0.11   0.08  -0.00
  12   1    -0.06  -0.09  -0.03    -0.01  -0.01   0.20     0.35   0.15   0.02
  13   1    -0.07  -0.09  -0.03    -0.01  -0.01   0.20    -0.02  -0.38  -0.02
  14   6     0.04   0.06   0.28    -0.14  -0.19   0.29    -0.07   0.05  -0.00
  15   1     0.01   0.02   0.17    -0.03  -0.05   0.14     0.23   0.09  -0.06
  16   1     0.01   0.01   0.17    -0.04  -0.05   0.14    -0.01  -0.25   0.06
  17   6     0.18   0.25   0.18     0.11   0.15  -0.09    -0.01   0.01   0.00
  18   1     0.05   0.07   0.09     0.03   0.04  -0.05     0.08   0.03   0.04
  19   1     0.05   0.07   0.09     0.03   0.04  -0.05     0.00  -0.08  -0.04
  20   8    -0.06  -0.09  -0.15     0.01   0.01  -0.42     0.01  -0.01  -0.00
  21   1    -0.08  -0.11   0.04    -0.05  -0.07  -0.04    -0.01   0.00  -0.00
                     13                     14                     15
                        a                      a                      a 
 Frequencies --   786.9925               836.8791               913.7481
 Red. masses --     1.9963                 2.5267                 2.7126
 Frc consts  --     0.0000                 0.0000                 0.0000
 IR Inten    --     0.0559                 0.0725                 0.1286
 Raman Activ --     0.0000                 0.0000                 0.0000
 Depolar     --     0.0000                 0.0000                 0.0000
 Atom AN      X      Y      Z        X      Y      Z        X      Y      Z
   1   6     0.02  -0.02   0.00    -0.06   0.05  -0.00    -0.11   0.08   0.00
   2   1    -0.13  -0.05  -0.13     0.17   0.07   0.19     0.17   0.08   0.22
   3   1    -0.05   0.04  -0.00     0.09  -0.06  -0.00     0.10  -0.07   0.00
   4   1    -0.00   0.14   0.13    -0.01  -0.18  -0.19    -0.02  -0.19  -0.22
   5   6     0.14  -0.10   0.00    -0.14   0.10  -0.00    -0.03   0.02   0.00
   6   1    -0.32  -0.14   0.01     0.22   0.11   0.10     0.04   0.02   0.24
   7   1     0.03   0.35  -0.01    -0.03  -0.25  -0.10    -0.01  -0.04  -0.24
   8   6     0.08  -0.05   0.00     0.11  -0.08   0.00     0.19  -0.14   0.00
   9   1    -0.16  -0.07   0.10    -0.16  -0.08  -0.13    -0.21  -0.12   0.08
  10   1     0.02   0.18  -0.10     0.02   0.18   0.13     0.04   0.24  -0.08
  11   6    -0.08   0.06  -0.00     0.14  -0.10   0.00    -0.14   0.10  -0.00
  12   1     0.18   0.08  -0.10    -0.20  -0.11  -0.11     0.15   0.09  -0.17
  13   1    -0.02  -0.20   0.10     0.03   0.23   0.11    -0.03  -0.17   0.17
  14   6    -0.15   0.11  -0.00    -0.12   0.08  -0.00    -0.04   0.03  -0.00
  15   1     0.35   0.15  -0.02     0.20   0.10   0.15     0.03   0.02  -0.27
  16   1    -0.03  -0.38   0.02    -0.03  -0.23  -0.15    -0.01  -0.03   0.27
  17   6    -0.06   0.04   0.00    -0.13   0.09  -0.00     0.17  -0.12   0.00
  18   1     0.19   0.07   0.10     0.26   0.12   0.14    -0.22  -0.12  -0.11
  19   1    -0.01  -0.20  -0.10    -0.03  -0.28  -0.14     0.03   0.25   0.11
  20   8     0.03  -0.02  -0.00     0.05  -0.04  -0.00    -0.05   0.03   0.00
  21   1    -0.01   0.01  -0.00    -0.01   0.01  -0.00     0.01  -0.00   0.00
                     16                     17                     18
                        a                      a                      a 
 Frequencies --   939.5539               995.1042              1023.5164
 Red. masses --     6.2096                 2.1190                 8.2748
 Frc consts  --     0.0000                 0.0000                 0.0000
 IR Inten    --     0.0776                 0.0583                 0.1244
 Raman Activ --     0.0000                 0.0000                 0.0000
 Depolar     --     0.0000                 0.0000                 0.0000
 Atom AN      X      Y      Z        X      Y      Z        X      Y      Z
   1   6     0.05   0.08  -0.36     0.12  -0.08   0.00     0.05   0.07  -0.06
   2   1    -0.03  -0.01   0.22    -0.13  -0.07  -0.18    -0.00   0.01   0.09
   3   1    -0.24  -0.34  -0.40    -0.07   0.05   0.00    -0.07  -0.10  -0.11
   4   1     0.00  -0.03   0.22     0.02   0.15   0.18     0.01  -0.00   0.09
   5   6     0.16   0.23  -0.09    -0.11   0.08  -0.00    -0.03  -0.05   0.02
   6   1     0.04   0.06   0.11     0.10   0.06  -0.26    -0.01  -0.01   0.08
   7   1     0.04   0.06   0.11    -0.02  -0.11   0.26    -0.01  -0.01   0.08
   8   6    -0.21  -0.30   0.22     0.02  -0.01  -0.00     0.01   0.02   0.03
   9   1    -0.05  -0.08   0.11    -0.02  -0.01  -0.35     0.01   0.01   0.09
  10   1    -0.06  -0.08   0.11     0.00   0.02   0.35     0.00   0.01   0.09
  11   6     0.06   0.08   0.16     0.08  -0.06   0.00     0.07   0.10  -0.18
  12   1     0.01   0.02   0.01    -0.07  -0.05  -0.30     0.01   0.02   0.02
  13   1     0.01   0.02   0.01     0.02   0.09   0.30     0.02   0.02   0.02
  14   6     0.05   0.07   0.05    -0.13   0.09  -0.00    -0.28  -0.40  -0.28
  15   1     0.01   0.02  -0.02     0.11   0.07  -0.22    -0.07  -0.10  -0.09
  16   1     0.01   0.02  -0.02    -0.03  -0.13   0.22    -0.07  -0.10  -0.09
  17   6    -0.07  -0.09  -0.04     0.12  -0.09   0.00     0.28   0.39   0.15
  18   1    -0.02  -0.02  -0.02    -0.13  -0.07  -0.05     0.06   0.09   0.02
  19   1    -0.02  -0.02  -0.02     0.03   0.15   0.05     0.07   0.09   0.02
  20   8     0.01   0.02  -0.05    -0.03   0.02   0.00    -0.01  -0.02   0.14
  21   1     0.03   0.05  -0.04     0.00  -0.00   0.00    -0.21  -0.29   0.26
                     19                     20                     21
                        a                      a                      a 
 Frequencies --  1052.6609              1088.1138              1103.5035
 Red. masses --    11.2895                10.3808                 8.3803
 Frc consts  --     0.0000                 0.0000                 0.0000
 IR Inten    --     0.5674                 0.8991                 0.1482
 Raman Activ --     0.0000                 0.0000                 0.0000
 Depolar     --     0.0000                 0.0000                 0.0000
 Atom AN      X      Y      Z        X      Y      Z        X      Y      Z
   1   6     0.12   0.18   0.22    -0.15  -0.21  -0.17     0.05   0.08   0.16
   2   1     0.03   0.04   0.13    -0.03  -0.05  -0.16     0.02   0.02   0.03
   3   1    -0.00  -0.01   0.02     0.03   0.04   0.03     0.03   0.04   0.06
   4   1     0.03   0.04   0.13    -0.04  -0.04  -0.16     0.01   0.03   0.03
   5   6    -0.14  -0.20  -0.21     0.13   0.19   0.27    -0.04  -0.06  -0.20
   6   1    -0.04  -0.06  -0.00     0.03   0.05   0.07    -0.02  -0.02  -0.08
   7   1    -0.04  -0.06  -0.00     0.03   0.05   0.07    -0.01  -0.02  -0.08
   8   6    -0.11  -0.16  -0.35    -0.02  -0.02  -0.00    -0.14  -0.20  -0.18
   9   1    -0.03  -0.04  -0.04    -0.00  -0.00  -0.11    -0.05  -0.06  -0.13
  10   1    -0.03  -0.04  -0.04    -0.00  -0.00  -0.11    -0.04  -0.07  -0.13
  11   6     0.26   0.37   0.00    -0.02  -0.03   0.07    -0.03  -0.04   0.56
  12   1     0.07   0.10   0.01    -0.01  -0.01  -0.01    -0.01  -0.01   0.25
  13   1     0.07   0.10   0.01    -0.01  -0.01  -0.01    -0.01  -0.01   0.25
  14   6    -0.12  -0.17   0.30    -0.03  -0.04  -0.15     0.11   0.16  -0.34
  15   1    -0.03  -0.05   0.05    -0.01  -0.02  -0.21     0.04   0.04  -0.24
  16   1    -0.03  -0.05   0.05    -0.01  -0.02  -0.21     0.03   0.05  -0.24
  17   6    -0.12  -0.16   0.25    -0.11  -0.15   0.52     0.08   0.11  -0.04
  18   1    -0.02  -0.03  -0.01    -0.01  -0.02   0.09     0.02   0.03   0.02
  19   1    -0.02  -0.03  -0.01    -0.01  -0.01   0.09     0.02   0.03   0.02
  20   8     0.11   0.16  -0.25     0.19   0.26  -0.33    -0.02  -0.03   0.09
  21   1    -0.01  -0.02  -0.02    -0.06  -0.08   0.04    -0.04  -0.05   0.06
                     22                     23                     24
                        a                      a                      a 
 Frequencies --  1112.8361              1129.4918              1163.2348
 Red. masses --     9.0121                 7.5330                 5.1092
 Frc consts  --     0.0000                 0.0000                 0.0000
 IR Inten    --     0.4641                 0.2399                 0.3085
 Raman Activ --     0.0000                 0.0000                 0.0000
 Depolar     --     0.0000                 0.0000                 0.0000
 Atom AN      X      Y      Z        X      Y      Z        X      Y      Z
   1   6    -0.13  -0.19  -0.19     0.10   0.15  -0.13    -0.04   0.03  -0.00
   2   1    -0.04  -0.05  -0.11    -0.02   0.01   0.19     0.03   0.02   0.04
   3   1    -0.01  -0.01  -0.02    -0.12  -0.17  -0.20     0.02  -0.01  -0.00
   4   1    -0.03  -0.05  -0.11     0.02  -0.01   0.19    -0.01  -0.03  -0.04
   5   6     0.05   0.07   0.40    -0.24  -0.33   0.20     0.07  -0.05   0.00
   6   1     0.01   0.02   0.24    -0.06  -0.08   0.23    -0.05  -0.03   0.04
   7   1     0.01   0.01   0.24    -0.06  -0.08   0.23     0.02   0.05  -0.04
   8   6    -0.04  -0.06  -0.40     0.23   0.32  -0.23    -0.10   0.07  -0.00
   9   1    -0.00  -0.01  -0.21     0.06   0.08  -0.02     0.07   0.05   0.07
  10   1    -0.01  -0.01  -0.21     0.06   0.08  -0.02    -0.02  -0.08  -0.07
  11   6     0.18   0.26   0.13    -0.14  -0.19  -0.02     0.16  -0.12   0.00
  12   1     0.05   0.07   0.09    -0.03  -0.05   0.14    -0.11  -0.08   0.13
  13   1     0.05   0.07   0.09    -0.03  -0.04   0.14     0.04   0.13  -0.13
  14   6    -0.03  -0.04   0.15     0.08   0.12  -0.14    -0.25   0.18  -0.00
  15   1     0.00  -0.00   0.08     0.02   0.03   0.01     0.16   0.12   0.17
  16   1    -0.00   0.00   0.08     0.02   0.03   0.01    -0.06  -0.19  -0.17
  17   6     0.07   0.10  -0.28    -0.05  -0.07   0.11     0.34  -0.24   0.00
  18   1     0.00   0.01  -0.08    -0.00  -0.01   0.11    -0.28  -0.18   0.28
  19   1     0.01   0.01  -0.08    -0.01  -0.01   0.11     0.08   0.33  -0.28
  20   8    -0.09  -0.13   0.16     0.02   0.03  -0.07    -0.13   0.09  -0.00
  21   1    -0.00  -0.00   0.02     0.08   0.12  -0.11    -0.01   0.01   0.00
                     25                     26                     27
                        a                      a                      a 
 Frequencies --  1207.5608              1208.6012              1248.2603
 Red. masses --     3.5299                 5.5515                 3.5468
 Frc consts  --     0.0000                 0.0000                 0.0000
 IR Inten    --     0.2432                 0.0622                 0.0867
 Raman Activ --     0.0000                 0.0000                 0.0000
 Depolar     --     0.0000                 0.0000                 0.0000
 Atom AN      X      Y      Z        X      Y      Z        X      Y      Z
   1   6    -0.04  -0.07   0.03     0.21  -0.15  -0.00     0.19  -0.13   0.00
   2   1     0.00  -0.01  -0.07    -0.15  -0.10  -0.19    -0.12  -0.08  -0.15
   3   1     0.04   0.05   0.06    -0.09   0.06  -0.00    -0.07   0.05  -0.00
   4   1    -0.01   0.01  -0.06     0.04   0.17   0.19     0.04   0.14   0.15
   5   6     0.08   0.12  -0.06    -0.32   0.22   0.00    -0.15   0.11  -0.00
   6   1     0.02   0.03   0.01     0.19   0.14   0.04     0.08   0.07   0.31
   7   1     0.02   0.02   0.01    -0.07  -0.22  -0.04    -0.04  -0.10  -0.31
   8   6    -0.09  -0.13  -0.04     0.27  -0.19   0.00    -0.06   0.05  -0.00
   9   1    -0.02  -0.03   0.12    -0.16  -0.12   0.06     0.04   0.03   0.19
  10   1    -0.02  -0.02   0.12     0.06   0.19  -0.06    -0.02  -0.04  -0.19
  11   6     0.06   0.09  -0.10    -0.21   0.14   0.00     0.23  -0.16   0.00
  12   1     0.01   0.02   0.20     0.12   0.09   0.12    -0.13  -0.10   0.20
  13   1     0.01   0.01   0.20    -0.05  -0.15  -0.12     0.05   0.15  -0.20
  14   6    -0.11  -0.15  -0.24     0.07  -0.05   0.00    -0.19   0.13  -0.00
  15   1    -0.03  -0.04   0.16    -0.04  -0.03   0.20     0.09   0.07  -0.26
  16   1    -0.02  -0.04   0.16     0.01   0.05  -0.21    -0.04  -0.11   0.26
  17   6     0.08   0.12   0.09     0.07  -0.06  -0.00    -0.04   0.03  -0.00
  18   1     0.03   0.03   0.34    -0.06  -0.04   0.17     0.04   0.03  -0.22
  19   1     0.02   0.04   0.34     0.02   0.07  -0.18    -0.02  -0.04   0.22
  20   8    -0.07  -0.10  -0.04    -0.05   0.03   0.00     0.04  -0.03   0.00
  21   1     0.28   0.39  -0.35    -0.01  -0.00   0.01     0.01  -0.00  -0.00
                     28                     29                     30
                        a                      a                      a 
 Frequencies --  1259.1960              1268.8361              1286.0046
 Red. masses --     3.7540                 1.4615                 2.4251
 Frc consts  --     0.0000                 0.0000                 0.0000
 IR Inten    --     0.3080                 0.0169                 0.0179
 Raman Activ --     0.0000                 0.0000                 0.0000
 Depolar     --     0.0000                 0.0000                 0.0000
 Atom AN      X      Y      Z        X      Y      Z        X      Y      Z
   1   6     0.06   0.09  -0.04     0.00  -0.00  -0.00    -0.12   0.09  -0.00
   2   1    -0.02   0.01   0.06    -0.01  -0.00   0.00     0.07   0.05   0.09
   3   1    -0.05  -0.07  -0.09    -0.01   0.01  -0.00     0.03  -0.02  -0.00
   4   1     0.01  -0.01   0.06    -0.00   0.01  -0.00    -0.03  -0.08  -0.09
   5   6    -0.08  -0.11   0.13    -0.08   0.05   0.00    -0.05   0.04  -0.00
   6   1    -0.01  -0.02  -0.15     0.04   0.03  -0.11     0.03   0.02  -0.47
   7   1    -0.02  -0.02  -0.15    -0.02  -0.05   0.11    -0.01  -0.03   0.47
   8   6     0.04   0.05   0.18    -0.03   0.02   0.00     0.22  -0.16   0.00
   9   1     0.01   0.01  -0.32     0.01   0.01   0.30    -0.11  -0.09   0.15
  10   1     0.01   0.01  -0.32    -0.01  -0.02  -0.30     0.05   0.13  -0.15
  11   6     0.04   0.05   0.18     0.02  -0.02   0.00     0.05  -0.03   0.00
  12   1     0.00   0.01  -0.33    -0.01  -0.01  -0.28    -0.02  -0.02   0.34
  13   1     0.01   0.00  -0.33     0.00   0.02   0.28     0.01   0.02  -0.34
  14   6    -0.11  -0.16   0.12    -0.08   0.06  -0.00    -0.12   0.09   0.00
  15   1    -0.02  -0.04  -0.21     0.06   0.05   0.37     0.06   0.05  -0.14
  16   1    -0.03  -0.03  -0.21    -0.02  -0.07  -0.37    -0.03  -0.07   0.14
  17   6     0.12   0.17   0.03     0.10  -0.07   0.00    -0.01   0.01   0.00
  18   1     0.02   0.04   0.10    -0.03  -0.03  -0.40     0.01   0.01  -0.09
  19   1     0.03   0.03   0.10     0.02   0.04   0.40    -0.01  -0.01   0.09
  20   8    -0.09  -0.13   0.00     0.04  -0.03   0.00     0.02  -0.01   0.00
  21   1     0.18   0.26  -0.23     0.02  -0.01  -0.00     0.00  -0.00  -0.00
                     31                     32                     33
                        a                      a                      a 
 Frequencies --  1289.6910              1306.3877              1353.3164
 Red. masses --     2.0308                 3.9507                 4.4474
 Frc consts  --     0.0000                 0.0000                 0.0000
 IR Inten    --     0.0080                 0.2642                 0.1332
 Raman Activ --     0.0000                 0.0000                 0.0000
 Depolar     --     0.0000                 0.0000                 0.0000
 Atom AN      X      Y      Z        X      Y      Z        X      Y      Z
   1   6     0.01  -0.01   0.00    -0.06  -0.09   0.04     0.05   0.07  -0.03
   2   1    -0.01  -0.00  -0.00     0.04   0.00  -0.03    -0.06  -0.01  -0.02
   3   1    -0.02   0.01   0.00     0.06   0.09   0.10    -0.06  -0.09  -0.10
   4   1    -0.00   0.01   0.00    -0.01   0.03  -0.03     0.01  -0.06  -0.02
   5   6    -0.10   0.07  -0.00     0.04   0.05  -0.24     0.01   0.01   0.34
   6   1     0.05   0.04  -0.13     0.00   0.01   0.30    -0.01  -0.01  -0.35
   7   1    -0.02  -0.06   0.13     0.01   0.01   0.30    -0.00  -0.02  -0.35
   8   6    -0.05   0.04  -0.00     0.04   0.05  -0.19    -0.04  -0.06  -0.07
   9   1     0.03   0.03   0.42    -0.00   0.01   0.29     0.02  -0.00   0.08
  10   1    -0.01  -0.04  -0.42     0.01  -0.00   0.29    -0.01   0.02   0.08
  11   6     0.14  -0.10   0.00    -0.06  -0.09   0.03    -0.01  -0.02  -0.31
  12   1    -0.06  -0.06  -0.29     0.01  -0.01  -0.08     0.01   0.00   0.33
  13   1     0.04   0.08   0.29    -0.01   0.00  -0.08    -0.00   0.01   0.33
  14   6     0.15  -0.10   0.00    -0.01  -0.02   0.30     0.03   0.04   0.22
  15   1    -0.07  -0.07  -0.21    -0.00  -0.01  -0.37    -0.02  -0.00  -0.20
  16   1     0.04   0.09   0.21    -0.01  -0.01  -0.37     0.00  -0.02  -0.20
  17   6    -0.08   0.06  -0.00     0.09   0.12   0.06     0.05   0.06   0.12
  18   1     0.02   0.02   0.33     0.00   0.02  -0.11     0.00   0.02  -0.21
  19   1    -0.01  -0.03  -0.33     0.02   0.01  -0.11     0.01   0.01  -0.21
  20   8    -0.04   0.03  -0.00    -0.08  -0.11   0.01    -0.06  -0.08   0.01
  21   1    -0.01   0.01  -0.00     0.11   0.15  -0.14     0.07   0.09  -0.09
                     34                     35                     36
                        a                      a                      a 
 Frequencies --  1377.2448              1383.5576              1416.2416
 Red. masses --     5.5372                 4.8907                 3.1809
 Frc consts  --     0.0000                 0.0000                 0.0000
 IR Inten    --     0.0443                 0.2593                 0.0338
 Raman Activ --     0.0000                 0.0000                 0.0000
 Depolar     --     0.0000                 0.0000                 0.0000
 Atom AN      X      Y      Z        X      Y      Z        X      Y      Z
   1   6     0.02   0.03  -0.05    -0.01  -0.01  -0.00     0.13   0.18   0.37
   2   1    -0.04  -0.01   0.01     0.01   0.00   0.01    -0.22  -0.05  -0.46
   3   1    -0.02  -0.03  -0.04     0.01   0.02   0.01    -0.25  -0.35  -0.27
   4   1     0.00  -0.04   0.01    -0.00   0.01   0.01     0.02  -0.22  -0.46
   5   6     0.02   0.03   0.31    -0.00  -0.00  -0.03     0.00   0.00  -0.08
   6   1    -0.02  -0.00  -0.25     0.00   0.00   0.03    -0.05  -0.02   0.08
   7   1     0.00  -0.02  -0.25     0.00   0.00   0.03    -0.00  -0.05   0.08
   8   6     0.00   0.00  -0.43     0.00   0.00  -0.01     0.01   0.02   0.00
   9   1    -0.00   0.00   0.37    -0.01  -0.00  -0.01     0.00   0.01   0.01
  10   1     0.00  -0.00   0.37     0.00  -0.01  -0.01     0.00   0.01   0.01
  11   6    -0.02  -0.02   0.33     0.01   0.02   0.15    -0.01  -0.01   0.03
  12   1     0.01  -0.00  -0.28    -0.01  -0.00  -0.10     0.00  -0.00  -0.03
  13   1    -0.01   0.01  -0.28     0.00  -0.01  -0.10    -0.00  -0.00  -0.03
  14   6    -0.01  -0.02  -0.11     0.01   0.01  -0.32    -0.00  -0.00  -0.01
  15   1     0.02   0.00   0.06    -0.02   0.00   0.24     0.00   0.00   0.01
  16   1    -0.00   0.02   0.06     0.01  -0.02   0.24     0.00   0.00   0.01
  17   6    -0.01  -0.02  -0.05     0.05   0.07   0.43    -0.00  -0.00   0.00
  18   1    -0.00  -0.01   0.09     0.02   0.03  -0.48     0.00  -0.00  -0.00
  19   1    -0.01  -0.00   0.09     0.02   0.03  -0.48    -0.00   0.00  -0.00
  20   8     0.02   0.03  -0.00    -0.09  -0.13   0.00    -0.00  -0.00   0.00
  21   1    -0.02  -0.03   0.03     0.11   0.16  -0.15     0.00   0.00  -0.00
                     37                     38                     39
                        a                      a                      a 
 Frequencies --  1492.7802              1494.2479              1497.3039
 Red. masses --     1.9424                 1.8674                 1.8362
 Frc consts  --     0.0000                 0.0000                 0.0000
 IR Inten    --     0.0623                 0.0884                 0.0495
 Raman Activ --     0.0000                 0.0000                 0.0000
 Depolar     --     0.0000                 0.0000                 0.0000
 Atom AN      X      Y      Z        X      Y      Z        X      Y      Z
   1   6    -0.00  -0.00  -0.00     0.01   0.02  -0.00    -0.03  -0.04   0.00
   2   1     0.00   0.00   0.01    -0.07  -0.02   0.01     0.14   0.05  -0.00
   3   1     0.00   0.01   0.00     0.02   0.02   0.02    -0.02  -0.03  -0.03
   4   1     0.00   0.00   0.01     0.00  -0.08   0.01    -0.00   0.15  -0.01
   5   6     0.02   0.03  -0.01    -0.03  -0.05  -0.01     0.12   0.16   0.00
   6   1    -0.09  -0.03   0.01     0.13   0.04   0.01    -0.46  -0.15   0.00
   7   1     0.00  -0.09   0.01    -0.00   0.14   0.01     0.01  -0.49   0.00
   8   6    -0.05  -0.08   0.00    -0.07  -0.10  -0.02     0.01   0.01   0.03
   9   1     0.21   0.07  -0.01     0.28   0.09   0.01    -0.00  -0.00  -0.02
  10   1    -0.01   0.22  -0.01    -0.01   0.29   0.01     0.00  -0.00  -0.02
  11   6    -0.03  -0.05   0.03     0.07   0.10   0.02    -0.07  -0.10  -0.00
  12   1     0.14   0.05  -0.02    -0.27  -0.09  -0.02     0.27   0.09  -0.01
  13   1    -0.00   0.15  -0.02     0.01  -0.29  -0.02    -0.01   0.28  -0.01
  14   6     0.13   0.18  -0.02     0.06   0.09   0.02     0.00   0.00  -0.00
  15   1    -0.50  -0.16   0.01    -0.25  -0.08  -0.02    -0.04  -0.02   0.00
  16   1     0.02  -0.52   0.01     0.01  -0.26  -0.02    -0.00  -0.05   0.00
  17   6     0.08   0.11  -0.01    -0.10  -0.14  -0.04    -0.08  -0.11  -0.01
  18   1    -0.30  -0.10   0.03     0.42   0.15   0.01     0.32   0.11  -0.00
  19   1     0.00  -0.32   0.03    -0.00   0.45   0.01    -0.00   0.34  -0.00
  20   8     0.01   0.02  -0.01    -0.01  -0.02   0.02    -0.01  -0.01   0.01
  21   1    -0.00  -0.00   0.01    -0.00  -0.01   0.00    -0.00  -0.00   0.00
                     40                     41                     42
                        a                      a                      a 
 Frequencies --  1498.9024              1502.8060              1504.4990
 Red. masses --     2.0110                 1.7945                 1.5318
 Frc consts  --     0.0000                 0.0000                 0.0000
 IR Inten    --     0.0442                 0.0813                 0.0267
 Raman Activ --     0.0000                 0.0000                 0.0000
 Depolar     --     0.0000                 0.0000                 0.0000
 Atom AN      X      Y      Z        X      Y      Z        X      Y      Z
   1   6     0.02   0.03  -0.01     0.01   0.01   0.01     0.17  -0.12   0.00
   2   1    -0.11  -0.04   0.03    -0.04  -0.01  -0.01    -0.15  -0.07   0.44
   3   1     0.03   0.04   0.04    -0.01  -0.00  -0.00    -0.58   0.41  -0.00
   4   1     0.00  -0.11   0.03     0.00  -0.04  -0.01     0.02   0.16  -0.44
   5   6    -0.02  -0.02  -0.04    -0.09  -0.13   0.00     0.04  -0.03  -0.00
   6   1     0.06   0.02   0.02     0.38   0.13  -0.01    -0.01  -0.02  -0.02
   7   1    -0.00   0.06   0.02    -0.01   0.40  -0.01     0.01   0.01   0.02
   8   6    -0.13  -0.19   0.02     0.03   0.05  -0.00    -0.00   0.00  -0.00
   9   1     0.50   0.16  -0.01    -0.18  -0.06   0.00     0.00   0.00  -0.02
  10   1    -0.01   0.52  -0.01     0.00  -0.19   0.00     0.00   0.00   0.02
  11   6    -0.07  -0.10   0.01    -0.10  -0.15   0.00    -0.00   0.00   0.00
  12   1     0.25   0.08  -0.01     0.43   0.14  -0.00     0.00   0.00   0.00
  13   1    -0.01   0.26  -0.01    -0.01   0.45  -0.00    -0.00  -0.00  -0.00
  14   6    -0.08  -0.11  -0.02     0.03   0.04  -0.01    -0.00  -0.00  -0.00
  15   1     0.29   0.09   0.01    -0.14  -0.05   0.01     0.00   0.00   0.00
  16   1    -0.01   0.30   0.01     0.00  -0.14   0.01    -0.00   0.00  -0.00
  17   6     0.01   0.01   0.02    -0.04  -0.06  -0.01     0.00   0.00   0.00
  18   1    -0.03  -0.01  -0.01     0.19   0.07   0.00    -0.00  -0.00   0.00
  19   1    -0.00  -0.04  -0.01     0.00   0.20   0.00     0.00  -0.00  -0.00
  20   8     0.00   0.00  -0.00    -0.01  -0.01   0.01    -0.00   0.00  -0.00
  21   1     0.00   0.00  -0.00    -0.00  -0.00   0.00     0.00  -0.00   0.00
                     43                     44                     45
                        a                      a                      a 
 Frequencies --  1507.6030              2849.0388              2882.7219
 Red. masses --     1.6562                 1.9745                 1.4190
 Frc consts  --     0.0000                 0.0000                 0.0000
 IR Inten    --     0.0208                 0.3891                 0.3140
 Raman Activ --     0.0000                 0.0000                 0.0000
 Depolar     --     0.0000                 0.0000                 0.0000
 Atom AN      X      Y      Z        X      Y      Z        X      Y      Z
   1   6     0.10   0.14  -0.11     0.00  -0.00   0.00     0.00   0.00  -0.00
   2   1    -0.57  -0.19   0.14    -0.00   0.00  -0.00     0.00  -0.00   0.00
   3   1     0.15   0.22   0.17     0.00  -0.00  -0.00    -0.00  -0.00   0.00
   4   1     0.01  -0.60   0.14    -0.00   0.00   0.00     0.00   0.00   0.00
   5   6     0.06   0.09  -0.05     0.00  -0.00   0.00     0.00   0.00   0.00
   6   1    -0.15  -0.04   0.03    -0.00   0.00   0.00     0.00  -0.00  -0.00
   7   1     0.01  -0.15   0.03    -0.00   0.00  -0.00    -0.00   0.00  -0.00
   8   6     0.03   0.04   0.02     0.00  -0.00  -0.00     0.00   0.00   0.00
   9   1    -0.12  -0.04  -0.01    -0.00   0.00  -0.00     0.00  -0.00   0.00
  10   1     0.00  -0.13  -0.01    -0.00   0.00   0.00    -0.00   0.00   0.00
  11   6    -0.00  -0.00  -0.01     0.01  -0.00   0.00     0.01   0.01   0.00
  12   1     0.03   0.01   0.00    -0.00   0.01   0.00     0.01  -0.02  -0.00
  13   1     0.00   0.03   0.00    -0.01   0.00  -0.00    -0.02   0.00  -0.00
  14   6     0.01   0.01  -0.00     0.01  -0.00   0.00     0.00   0.00  -0.00
  15   1    -0.03  -0.01   0.00    -0.01   0.04   0.00     0.01  -0.03   0.00
  16   1     0.00  -0.03   0.00    -0.04  -0.00  -0.00    -0.03   0.00   0.00
  17   6    -0.00  -0.01  -0.00    -0.24   0.17  -0.00    -0.11  -0.16  -0.02
  18   1     0.02   0.01   0.00     0.20  -0.64  -0.01    -0.26   0.64   0.00
  19   1     0.00   0.02   0.00     0.67   0.02   0.01     0.69  -0.04   0.00
  20   8    -0.00  -0.00   0.00    -0.01   0.00  -0.00    -0.01  -0.01   0.02
  21   1    -0.00  -0.00   0.00     0.00  -0.00   0.00    -0.00  -0.00   0.00
                     46                     47                     48
                        a                      a                      a 
 Frequencies --  2956.1718              2961.6847              2973.7816
 Red. masses --     1.9135                 1.9607                 1.4669
 Frc consts  --     0.0000                 0.0000                 0.0000
 IR Inten    --     0.1186                 0.0166                 0.0852
 Raman Activ --     0.0000                 0.0000                 0.0000
 Depolar     --     0.0000                 0.0000                 0.0000
 Atom AN      X      Y      Z        X      Y      Z        X      Y      Z
   1   6     0.00  -0.00  -0.00     0.01  -0.01  -0.00     0.00   0.01  -0.01
   2   1    -0.00   0.01   0.00    -0.01   0.05   0.00     0.01  -0.02  -0.00
   3   1     0.00  -0.00   0.00     0.00  -0.00   0.00    -0.01  -0.01   0.02
   4   1    -0.01  -0.00  -0.00    -0.05  -0.00  -0.00    -0.02   0.00  -0.00
   5   6    -0.05   0.03  -0.00    -0.19   0.14  -0.00    -0.04  -0.06   0.00
   6   1     0.04  -0.13   0.00     0.16  -0.52   0.00    -0.09   0.23   0.00
   7   1     0.14   0.01  -0.00     0.55   0.02  -0.00     0.24  -0.01   0.00
   8   6     0.12  -0.08   0.00     0.09  -0.06   0.00    -0.02  -0.03   0.00
   9   1    -0.10   0.33  -0.00    -0.08   0.25  -0.00    -0.05   0.12   0.00
  10   1    -0.35  -0.02   0.00    -0.26  -0.01   0.00     0.13  -0.00   0.00
  11   6    -0.19   0.14  -0.00     0.11  -0.07   0.00     0.11   0.15  -0.00
  12   1     0.16  -0.53   0.00    -0.08   0.27  -0.00     0.23  -0.59   0.00
  13   1     0.56   0.02  -0.00    -0.29  -0.01   0.00    -0.63   0.02   0.00
  14   6     0.03  -0.02   0.00    -0.03   0.02  -0.00    -0.01  -0.01  -0.00
  15   1    -0.03   0.10  -0.00     0.02  -0.08   0.00    -0.03   0.07  -0.00
  16   1    -0.10  -0.01   0.00     0.08   0.00  -0.00     0.07  -0.00  -0.00
  17   6     0.00  -0.00  -0.00    -0.00   0.00  -0.00     0.00   0.00   0.00
  18   1     0.00  -0.00  -0.00     0.00   0.00   0.00     0.01  -0.02  -0.00
  19   1     0.00   0.00   0.00    -0.00  -0.00  -0.00    -0.02   0.00  -0.00
  20   8     0.00  -0.00  -0.00    -0.00   0.00   0.00     0.00   0.00   0.00
  21   1    -0.00   0.00   0.00     0.00  -0.00  -0.00    -0.00  -0.00  -0.00
                     49                     50                     51
                        a                      a                      a 
 Frequencies --  2975.6284              2977.8111              2985.7988
 Red. masses --     2.0332                 1.4432                 1.5171
 Frc consts  --     0.0000                 0.0000                 0.0000
 IR Inten    --     0.3572                 0.0676                 0.3110
 Raman Activ --     0.0000                 0.0000                 0.0000
 Depolar     --     0.0000                 0.0000                 0.0000
 Atom AN      X      Y      Z        X      Y      Z        X      Y      Z
   1   6    -0.02   0.01   0.00     0.00   0.00  -0.01     0.02   0.02  -0.02
   2   1     0.02  -0.06  -0.00     0.01  -0.02  -0.00     0.02  -0.06  -0.00
   3   1    -0.00   0.00  -0.00    -0.01  -0.01   0.02    -0.02  -0.03   0.05
   4   1     0.07   0.00   0.00    -0.02   0.00  -0.00    -0.06   0.00  -0.00
   5   6     0.13  -0.09   0.00    -0.08  -0.12  -0.00    -0.07  -0.10   0.00
   6   1    -0.10   0.33  -0.00    -0.19   0.48  -0.00    -0.15   0.37  -0.00
   7   1    -0.37  -0.01   0.00     0.50  -0.02  -0.00     0.39  -0.02  -0.00
   8   6     0.19  -0.13   0.00     0.08   0.11   0.00    -0.09  -0.12   0.00
   9   1    -0.15   0.48  -0.00     0.17  -0.42   0.00    -0.18   0.45  -0.00
  10   1    -0.50  -0.02   0.00    -0.47   0.02   0.00     0.48  -0.02  -0.00
  11   6     0.07  -0.05   0.00    -0.01  -0.02   0.00    -0.04  -0.06  -0.00
  12   1    -0.05   0.18  -0.00    -0.04   0.10   0.00    -0.09   0.22  -0.00
  13   1    -0.20  -0.01   0.00     0.10  -0.00   0.00     0.23  -0.01  -0.00
  14   6    -0.06   0.05  -0.00    -0.01  -0.01   0.00     0.03   0.04  -0.00
  15   1     0.05  -0.17   0.00    -0.01   0.03   0.00     0.06  -0.16   0.00
  16   1     0.18   0.01  -0.00     0.04  -0.00   0.00    -0.16   0.01   0.00
  17   6    -0.00   0.00   0.00    -0.00  -0.00  -0.00     0.00   0.00   0.00
  18   1     0.00  -0.00   0.00    -0.00   0.01  -0.00    -0.00   0.00   0.00
  19   1     0.00  -0.00  -0.00     0.01  -0.00  -0.00     0.00   0.00   0.00
  20   8    -0.00   0.00  -0.00    -0.00  -0.00   0.00    -0.00  -0.00  -0.00
  21   1     0.00  -0.00  -0.00     0.00   0.00   0.00     0.00   0.00   0.00
                     52                     53                     54
                        a                      a                      a 
 Frequencies --  2990.2509              3001.1991              3031.3131
 Red. masses --     2.0166                 1.5019                 1.9586
 Frc consts  --     0.0000                 0.0000                 0.0000
 IR Inten    --     0.3867                 0.2948                 0.2884
 Raman Activ --     0.0000                 0.0000                 0.0000
 Depolar     --     0.0000                 0.0000                 0.0000
 Atom AN      X      Y      Z        X      Y      Z        X      Y      Z
   1   6     0.01  -0.00   0.00     0.01   0.01  -0.01     0.24  -0.17   0.00
   2   1    -0.01   0.02  -0.00     0.01  -0.02  -0.00    -0.20   0.64   0.00
   3   1     0.00  -0.00  -0.00    -0.01  -0.01   0.02     0.04  -0.02  -0.00
   4   1    -0.02  -0.00   0.00    -0.02   0.00  -0.00    -0.67  -0.02  -0.00
   5   6    -0.02   0.01  -0.00    -0.01  -0.01   0.00     0.04  -0.03   0.00
   6   1     0.02  -0.05   0.00    -0.02   0.04  -0.00    -0.03   0.08  -0.00
   7   1     0.05   0.00  -0.00     0.05  -0.00  -0.00    -0.08  -0.00   0.00
   8   6    -0.04   0.03  -0.00    -0.02  -0.03  -0.00     0.01  -0.01   0.00
   9   1     0.04  -0.12  -0.00    -0.05   0.12   0.00    -0.01   0.03  -0.00
  10   1     0.12   0.00   0.00     0.13  -0.01   0.00    -0.03  -0.00   0.00
  11   6    -0.07   0.05  -0.00    -0.03  -0.04   0.00     0.00  -0.00   0.00
  12   1     0.06  -0.17   0.00    -0.05   0.11  -0.00    -0.00   0.01   0.00
  13   1     0.17   0.00   0.00     0.12  -0.01   0.00    -0.01  -0.00  -0.00
  14   6    -0.23   0.16  -0.00    -0.12  -0.16   0.01     0.00  -0.00   0.00
  15   1     0.19  -0.61   0.01    -0.24   0.62  -0.01    -0.00   0.01  -0.00
  16   1     0.63   0.02  -0.01     0.67  -0.02  -0.01    -0.01  -0.00   0.00
  17   6    -0.02   0.01  -0.00    -0.01  -0.01  -0.00     0.00  -0.00  -0.00
  18   1     0.01  -0.04  -0.00    -0.01   0.03   0.00    -0.00   0.00   0.00
  19   1     0.04  -0.00   0.00     0.03  -0.00   0.00    -0.00  -0.00  -0.00
  20   8     0.00  -0.00  -0.00     0.00   0.00   0.00    -0.00   0.00  -0.00
  21   1    -0.00   0.00   0.00    -0.00  -0.00  -0.01     0.00  -0.00   0.00
                     55                     56                     57
                        a                      a                      a 
 Frequencies --  3033.0433              3038.0443              3565.2502
 Red. masses --     1.9366                 1.2557                 1.8751
 Frc consts  --     0.0000                 0.0000                 0.0000
 IR Inten    --     0.2772                 0.1802                 0.1455
 Raman Activ --     0.0000                 0.0000                 0.0000
 Depolar     --     0.0000                 0.0000                 0.0000
 Atom AN      X      Y      Z        X      Y      Z        X      Y      Z
   1   6    -0.14  -0.20   0.15    -0.03  -0.04  -0.14    -0.00  -0.00   0.00
   2   1    -0.18   0.41   0.03    -0.18   0.49  -0.01     0.00   0.00   0.00
   3   1     0.23   0.33  -0.58    -0.23  -0.32   0.53     0.00   0.00  -0.00
   4   1     0.45  -0.03   0.03     0.52  -0.00  -0.01     0.00   0.00   0.00
   5   6    -0.02  -0.02   0.00    -0.00  -0.01  -0.01    -0.00  -0.00  -0.00
   6   1    -0.03   0.07  -0.00    -0.01   0.01  -0.00     0.00  -0.00  -0.00
   7   1     0.08  -0.00  -0.00     0.01  -0.00  -0.00    -0.00   0.00  -0.00
   8   6    -0.01  -0.01   0.00    -0.00  -0.00   0.00     0.00   0.00  -0.00
   9   1    -0.02   0.04  -0.00    -0.01   0.01  -0.00    -0.00   0.00   0.00
  10   1     0.05  -0.00  -0.00     0.01  -0.00  -0.00     0.00   0.00   0.00
  11   6    -0.00  -0.00   0.00    -0.00  -0.00  -0.00    -0.00  -0.00  -0.00
  12   1    -0.00   0.01   0.00    -0.00   0.00   0.00     0.00  -0.00  -0.00
  13   1     0.01  -0.00   0.00     0.00  -0.00   0.00    -0.00   0.00  -0.00
  14   6    -0.00  -0.00   0.00    -0.00  -0.00   0.00     0.00   0.00  -0.00
  15   1    -0.00   0.01  -0.00    -0.00   0.00  -0.00    -0.00   0.00   0.00
  16   1     0.01  -0.00  -0.00     0.00  -0.00  -0.00     0.01  -0.00   0.00
  17   6    -0.00  -0.00  -0.00    -0.00  -0.00   0.00    -0.00  -0.00  -0.00
  18   1    -0.00   0.00   0.00    -0.00   0.00   0.00     0.00   0.00   0.00
  19   1     0.00  -0.00   0.00     0.00  -0.00   0.00     0.00   0.00   0.00
  20   8     0.00   0.00   0.00     0.00   0.00  -0.00    -0.08  -0.11  -0.20
  21   1    -0.00  -0.00  -0.00    -0.00  -0.00   0.00     0.31   0.43   0.81
