 Entering Gaussian System
 *********************************************
 Gaussian 98:
 frequency output generated by the xtb code
 *********************************************
                         Standard orientation:
 --------------------------------------------------------------------
  Center     Atomic     Atomic              Coordinates (Angstroms)
  Number     Number      Type              X           Y           Z
 --------------------------------------------------------------------
    1          6             0       -0.759388   -0.821979    0.523171
    2          1             0       -0.394783   -1.843988    0.518338
    3          1             0       -0.417692   -0.314849    1.423569
    4          1             0       -1.847516   -0.820788    0.548508
    5          6             0       -0.293975   -0.045344   -0.686543
    6          8             0       -0.592265    1.107444   -0.865013
    7          6             0        0.569112   -0.824553   -1.645347
    8          1             0        1.456985   -1.180772   -1.126706
    9          1             0        0.018797   -1.690962   -2.006754
   10          1             0        0.862672   -0.201737   -2.486061
 --------------------------------------------------------------------
     1 basis functions        1 primitive gaussians
     1 alpha electrons        1 beta electrons
 
 Harmonic frequencies (cm**-1), IR intensities (KM/Mole),
 Raman scattering activities (A**4/amu), Raman depolarization ratios,
 reduced masses (AMU), force constants (mDyne/A) and normal coordinates:
                      1                      2                      3
                        a                      a                      a 
 Frequencies --  -100.4094               150.7312               386.5369
 Red. masses --     1.8318                 1.5955                 8.2723
 Frc consts  --     0.0000                 0.0000                 0.0000
 IR Inten    --     0.0952                 0.0296                 0.1316
 Raman Activ --     0.0000                 0.0000                 0.0000
 Depolar     --     0.0000                 0.0000                 0.0000
 Atom AN      X      Y      Z        X      Y      Z        X      Y      Z
   1   6     0.01   0.00   0.01     0.11   0.04   0.07     0.25  -0.24  -0.28
   2   1    -0.40  -0.14  -0.24     0.15   0.05   0.09     0.17  -0.03  -0.26
   3   1     0.50  -0.27  -0.03    -0.08   0.10   0.02     0.08  -0.19  -0.02
   4   1     0.01   0.45   0.34     0.03  -0.11  -0.05     0.08  -0.19  -0.02
   5   6    -0.04  -0.01  -0.02     0.04   0.02   0.03    -0.07   0.30  -0.05
   6   8    -0.15  -0.05  -0.09    -0.13  -0.04  -0.08    -0.09   0.34  -0.05
   7   6     0.13   0.05   0.08    -0.00  -0.00  -0.00    -0.13  -0.22   0.35
   8   1    -0.03  -0.08   0.08    -0.26  -0.50   0.08    -0.11  -0.07   0.22
   9   1     0.01   0.07  -0.09    -0.26   0.32  -0.40    -0.11  -0.07   0.22
  10   1     0.15   0.05   0.09     0.40   0.14   0.24     0.09  -0.25   0.01
                      4                      5                      6
                        a                      a                      a 
 Frequencies --   489.3197               515.4806               838.3710
 Red. masses --     7.9836                11.2903                 9.9843
 Frc consts  --     0.0000                 0.0000                 0.0000
 IR Inten    --     0.3217                 0.5263                 0.2795
 Raman Activ --     0.0000                 0.0000                 0.0000
 Depolar     --     0.0000                 0.0000                 0.0000
 Atom AN      X      Y      Z        X      Y      Z        X      Y      Z
   1   6    -0.06  -0.02  -0.03    -0.04  -0.28   0.23     0.22   0.18  -0.46
   2   1    -0.15  -0.05  -0.09     0.08  -0.05  -0.10    -0.01   0.03  -0.00
   3   1    -0.15  -0.19   0.14    -0.00  -0.19   0.12     0.04   0.16  -0.18
   4   1    -0.02   0.13  -0.25    -0.01  -0.19   0.11     0.06   0.16  -0.17
   5   6     0.57   0.20   0.35    -0.15   0.00   0.25     0.06  -0.23   0.04
   6   8    -0.26  -0.09  -0.16     0.34   0.01  -0.56     0.09  -0.33   0.04
   7   6    -0.02  -0.01  -0.01    -0.18   0.28   0.13    -0.32   0.24   0.39
   8   1     0.08  -0.14  -0.25     0.01   0.09  -0.06    -0.07   0.07   0.07
   9   1    -0.24   0.08   0.15     0.00   0.09  -0.06    -0.07   0.07   0.07
  10   1    -0.16  -0.06  -0.10    -0.14   0.22   0.11    -0.16   0.17   0.16
                      7                      8                      9
                        a                      a                      a 
 Frequencies --   867.8264               953.1178              1053.5322
 Red. masses --     2.8713                 5.1621                 6.4574
 Frc consts  --     0.0000                 0.0000                 0.0000
 IR Inten    --     0.0062                 0.4437                 0.4026
 Raman Activ --     0.0000                 0.0000                 0.0000
 Depolar     --     0.0000                 0.0000                 0.0000
 Atom AN      X      Y      Z        X      Y      Z        X      Y      Z
   1   6     0.25   0.09   0.15    -0.02   0.34  -0.17     0.24   0.09   0.15
   2   1    -0.16  -0.06  -0.10     0.19   0.16  -0.40    -0.13  -0.05  -0.08
   3   1    -0.23  -0.25   0.29     0.02  -0.13   0.06    -0.18  -0.17   0.22
   4   1     0.05   0.18  -0.40     0.00  -0.13   0.05     0.05   0.12  -0.30
   5   6     0.01   0.00   0.00    -0.13   0.00   0.22    -0.44  -0.16  -0.27
   6   8    -0.02  -0.01  -0.01    -0.05   0.02   0.08     0.08   0.03   0.05
   7   6    -0.22  -0.08  -0.14     0.10  -0.38   0.05     0.26   0.09   0.16
   8   1    -0.16   0.23   0.32     0.21  -0.05  -0.26     0.13  -0.21  -0.24
   9   1     0.32  -0.17  -0.22     0.17  -0.06  -0.29    -0.26   0.16   0.16
  10   1     0.15   0.05   0.09    -0.20   0.25   0.18    -0.13  -0.05  -0.08
                     10                     11                     12
                        a                      a                      a 
 Frequencies --  1064.6841              1191.4784              1364.4290
 Red. masses --     5.4957                 9.7832                 3.3651
 Frc consts  --     0.0000                 0.0000                 0.0000
 IR Inten    --     0.1313                 1.4905                 0.5063
 Raman Activ --     0.0000                 0.0000                 0.0000
 Depolar     --     0.0000                 0.0000                 0.0000
 Atom AN      X      Y      Z        X      Y      Z        X      Y      Z
   1   6    -0.15   0.35   0.05     0.14  -0.01  -0.22    -0.06  -0.04   0.12
   2   1     0.20   0.17  -0.42    -0.01  -0.01   0.03     0.06   0.02  -0.11
   3   1     0.02  -0.21   0.15     0.00   0.16  -0.13     0.12   0.07  -0.07
   4   1    -0.03  -0.23   0.12     0.03   0.17  -0.11    -0.01   0.02  -0.15
   5   6     0.05  -0.13  -0.00    -0.41  -0.01   0.68     0.04  -0.00  -0.06
   6   8     0.07  -0.32   0.06     0.06  -0.01  -0.09    -0.00  -0.01   0.01
   7   6    -0.01   0.27  -0.14     0.15   0.02  -0.26    -0.25   0.26   0.25
   8   1    -0.15   0.03   0.20    -0.03  -0.04   0.02     0.09  -0.31  -0.40
   9   1    -0.13   0.04   0.21     0.01  -0.03   0.04     0.45  -0.18  -0.18
  10   1     0.19  -0.23  -0.18     0.19  -0.22  -0.18     0.22  -0.34  -0.16
                     13                     14                     15
                        a                      a                      a 
 Frequencies --  1370.1832              1451.2054              1452.1787
 Red. masses --     3.0404                 1.7363                 1.5764
 Frc consts  --     0.0000                 0.0000                 0.0000
 IR Inten    --     0.3690                 0.2078                 0.0794
 Raman Activ --     0.0000                 0.0000                 0.0000
 Depolar     --     0.0000                 0.0000                 0.0000
 Atom AN      X      Y      Z        X      Y      Z        X      Y      Z
   1   6     0.16   0.16  -0.35    -0.02   0.08  -0.00     0.18   0.06   0.11
   2   1    -0.20  -0.06   0.37    -0.08  -0.02   0.10    -0.58  -0.20  -0.36
   3   1    -0.36  -0.28   0.27     0.21  -0.08  -0.03    -0.15   0.40  -0.15
   4   1     0.03  -0.14   0.51    -0.00  -0.18  -0.16     0.02  -0.44   0.07
   5   6    -0.01  -0.01   0.02    -0.02  -0.02   0.04     0.05   0.02   0.03
   6   8     0.01  -0.01  -0.00    -0.01   0.06  -0.01    -0.01  -0.00  -0.00
   7   6    -0.06   0.09   0.04     0.08   0.11  -0.19     0.03   0.01   0.03
   8   1     0.01  -0.13  -0.11    -0.26  -0.50   0.10    -0.05  -0.02   0.07
   9   1     0.15  -0.07  -0.02     0.24  -0.32   0.40     0.02   0.03  -0.10
  10   1     0.06  -0.09  -0.05    -0.19   0.31   0.13    -0.12  -0.05  -0.08
                     16                     17                     18
                        a                      a                      a 
 Frequencies --  1460.6197              1466.0240              1776.7865
 Red. masses --     1.6197                 1.7250                13.3505
 Frc consts  --     0.0000                 0.0000                 0.0000
 IR Inten    --     0.0738                 0.0547                 2.1289
 Raman Activ --     0.0000                 0.0000                 0.0000
 Depolar     --     0.0000                 0.0000                 0.0000
 Atom AN      X      Y      Z        X      Y      Z        X      Y      Z
   1   6     0.05   0.02   0.03     0.05  -0.22   0.05     0.01  -0.05   0.02
   2   1    -0.13  -0.05  -0.08     0.21   0.05  -0.37    -0.02  -0.01   0.04
   3   1    -0.04   0.08  -0.02    -0.48   0.28   0.02    -0.01   0.02  -0.01
   4   1     0.01  -0.09   0.00     0.01   0.45   0.32     0.00   0.02  -0.00
   5   6    -0.02  -0.01  -0.01     0.04  -0.02  -0.06    -0.20   0.75  -0.12
   6   8    -0.00  -0.00  -0.00    -0.01   0.02   0.00     0.15  -0.58   0.09
   7   6    -0.18  -0.07  -0.11     0.02   0.05  -0.06     0.02  -0.04  -0.01
   8   1     0.24   0.17  -0.33    -0.10  -0.20   0.03    -0.00  -0.04  -0.02
   9   1    -0.11  -0.13   0.41     0.10  -0.13   0.16     0.04  -0.02   0.00
  10   1     0.58   0.21   0.36    -0.07   0.12   0.05    -0.03   0.05   0.02
                     19                     20                     21
                        a                      a                      a 
 Frequencies --  3023.0048              3026.0585              3029.3511
 Red. masses --     1.9473                 1.9363                 1.4244
 Frc consts  --     0.0000                 0.0000                 0.0000
 IR Inten    --     0.0549                 0.1077                 0.0534
 Raman Activ --     0.0000                 0.0000                 0.0000
 Depolar     --     0.0000                 0.0000                 0.0000
 Atom AN      X      Y      Z        X      Y      Z        X      Y      Z
   1   6    -0.12  -0.04  -0.07     0.21   0.07   0.13     0.02  -0.02  -0.01
   2   1    -0.02  -0.01  -0.01     0.03   0.01   0.02    -0.02   0.05   0.00
   3   1     0.09   0.15   0.27    -0.17  -0.28  -0.49     0.02   0.03   0.05
   4   1     0.33  -0.01  -0.01    -0.59   0.01   0.03    -0.07  -0.00  -0.00
   5   6     0.00   0.00   0.00     0.01   0.00   0.00    -0.00   0.01  -0.00
   6   8    -0.00   0.00  -0.00    -0.00  -0.00  -0.00     0.00  -0.00   0.00
   7   6     0.21   0.07   0.13     0.12   0.04   0.07    -0.05   0.18  -0.00
   8   1    -0.49   0.22  -0.29    -0.28   0.12  -0.16     0.54  -0.19   0.32
   9   1    -0.28  -0.47  -0.18    -0.15  -0.25  -0.10    -0.38  -0.55  -0.24
  10   1     0.03   0.01   0.02     0.01   0.00   0.01     0.02   0.08  -0.08
                     22                     23                     24
                        a                      a                      a 
 Frequencies --  3036.3282              3057.3669              3063.0308
 Red. masses --     1.4152                 1.7897                 1.8110
 Frc consts  --     0.0000                 0.0000                 0.0000
 IR Inten    --     0.0582                 0.0910                 0.1759
 Raman Activ --     0.0000                 0.0000                 0.0000
 Depolar     --     0.0000                 0.0000                 0.0000
 Atom AN      X      Y      Z        X      Y      Z        X      Y      Z
   1   6    -0.11   0.06   0.15     0.03  -0.08  -0.01    -0.10   0.24   0.02
   2   1    -0.06   0.13   0.02    -0.10   0.27   0.01     0.31  -0.85  -0.01
   3   1    -0.24  -0.32  -0.56     0.02   0.01   0.03    -0.04  -0.01  -0.06
   4   1     0.68   0.01   0.01    -0.04  -0.01  -0.00     0.06   0.03   0.00
   5   6    -0.00  -0.00   0.01     0.00   0.00  -0.01    -0.00   0.01  -0.00
   6   8     0.00   0.00  -0.00    -0.00  -0.00   0.00     0.00  -0.00  -0.00
   7   6    -0.00   0.02  -0.01     0.06   0.16  -0.19     0.02   0.06  -0.06
   8   1     0.05  -0.02   0.03     0.05   0.00   0.00     0.06  -0.01   0.03
   9   1    -0.03  -0.05  -0.02    -0.02  -0.02  -0.04    -0.03  -0.05  -0.03
  10   1    -0.00  -0.00   0.01    -0.24  -0.53   0.70    -0.08  -0.17   0.22
