 Entering Gaussian System
 *********************************************
 Gaussian 98:
 frequency output generated by the xtb code
 *********************************************
                         Standard orientation:
 --------------------------------------------------------------------
  Center     Atomic     Atomic              Coordinates (Angstroms)
  Number     Number      Type              X           Y           Z
 --------------------------------------------------------------------
    1          6             0       -0.759385   -0.821984    0.523167
    2          1             0       -0.394776   -1.843991    0.518334
    3          1             0       -0.417695   -0.314854    1.423567
    4          1             0       -1.847514   -0.820798    0.548500
    5          6             0       -0.293972   -0.045345   -0.686545
    6          8             0       -0.592267    1.107443   -0.865013
    7          6             0        0.569122   -0.824547   -1.645346
    8          1             0        1.456995   -1.180763   -1.126703
    9          1             0        0.018813   -1.690959   -2.006757
   10          1             0        0.862682   -0.201728   -2.486058
 --------------------------------------------------------------------
     1 basis functions        1 primitive gaussians
     1 alpha electrons        1 beta electrons
 
 Harmonic frequencies (cm**-1), IR intensities (KM/Mole),
 Raman scattering activities (A**4/amu), Raman depolarization ratios,
 reduced masses (AMU), force constants (mDyne/A) and normal coordinates:
                      1                      2                      3
                        a                      a                      a 
 Frequencies --  -100.4094               150.7312               489.3197
 Red. masses --    99.0000                99.0000                99.0000
 Frc consts  --    99.0000                99.0000                99.0000
 IR Inten    --    99.0000                99.0000                99.0000
 Raman Activ --     0.0000                 0.0000                 0.0000
 Depolar     --     0.0000                 0.0000                 0.0000
 Atom AN      X      Y      Z        X      Y      Z        X      Y      Z
   1   6     0.01   0.00   0.01     0.11   0.04   0.07    -0.06  -0.02  -0.03
   2   1    -0.40  -0.14  -0.24     0.15   0.05   0.09    -0.15  -0.05  -0.09
   3   1     0.50  -0.27  -0.03    -0.08   0.10   0.02    -0.15  -0.19   0.14
   4   1     0.01   0.45   0.34     0.03  -0.11  -0.05    -0.02   0.13  -0.25
   5   6    -0.04  -0.01  -0.02     0.04   0.02   0.03     0.57   0.20   0.35
   6   8    -0.15  -0.05  -0.09    -0.13  -0.04  -0.08    -0.26  -0.09  -0.16
   7   6     0.13   0.05   0.08    -0.00  -0.00  -0.00    -0.02  -0.01  -0.01
   8   1    -0.03  -0.08   0.08    -0.26  -0.50   0.08     0.08  -0.14  -0.25
   9   1     0.01   0.07  -0.09    -0.26   0.32  -0.40    -0.24   0.08   0.15
  10   1     0.15   0.05   0.09     0.40   0.14   0.24    -0.16  -0.06  -0.10
                      4                      5                      6
                        a                      a                      a 
 Frequencies --   386.5369               515.4806              1053.5322
 Red. masses --    99.0000                99.0000                99.0000
 Frc consts  --    99.0000                99.0000                99.0000
 IR Inten    --    99.0000                99.0000                99.0000
 Raman Activ --     0.0000                 0.0000                 0.0000
 Depolar     --     0.0000                 0.0000                 0.0000
 Atom AN      X      Y      Z        X      Y      Z        X      Y      Z
   1   6     0.25  -0.24  -0.28    -0.04  -0.28   0.23     0.24   0.09   0.15
   2   1     0.17  -0.03  -0.26     0.08  -0.05  -0.10    -0.13  -0.05  -0.08
   3   1     0.08  -0.19  -0.02    -0.00  -0.19   0.12    -0.18  -0.17   0.22
   4   1     0.08  -0.19  -0.02    -0.01  -0.19   0.11     0.05   0.12  -0.30
   5   6    -0.07   0.30  -0.05    -0.15   0.00   0.25    -0.44  -0.16  -0.27
   6   8    -0.09   0.34  -0.05     0.34   0.01  -0.56     0.08   0.03   0.05
   7   6    -0.13  -0.22   0.35    -0.18   0.28   0.13     0.26   0.09   0.16
   8   1    -0.11  -0.07   0.22     0.01   0.09  -0.06     0.13  -0.21  -0.24
   9   1    -0.11  -0.07   0.22     0.00   0.09  -0.06    -0.26   0.16   0.16
  10   1     0.09  -0.25   0.01    -0.14   0.22   0.11    -0.13  -0.05  -0.08
                      7                      8                      9
                        a                      a                      a 
 Frequencies --   867.8264              1460.6197               838.3710
 Red. masses --    99.0000                99.0000                99.0000
 Frc consts  --    99.0000                99.0000                99.0000
 IR Inten    --    99.0000                99.0000                99.0000
 Raman Activ --     0.0000                 0.0000                 0.0000
 Depolar     --     0.0000                 0.0000                 0.0000
 Atom AN      X      Y      Z        X      Y      Z        X      Y      Z
   1   6     0.25   0.09   0.15     0.05   0.02   0.03     0.22   0.18  -0.46
   2   1    -0.16  -0.06  -0.10    -0.13  -0.05  -0.08    -0.01   0.03  -0.00
   3   1    -0.23  -0.25   0.29    -0.04   0.08  -0.02     0.04   0.16  -0.18
   4   1     0.05   0.18  -0.40     0.01  -0.09   0.00     0.06   0.16  -0.17
   5   6     0.01   0.00   0.00    -0.02  -0.01  -0.01     0.06  -0.23   0.04
   6   8    -0.02  -0.01  -0.01    -0.00  -0.00  -0.00     0.09  -0.33   0.04
   7   6    -0.22  -0.08  -0.14    -0.18  -0.07  -0.11    -0.32   0.24   0.39
   8   1    -0.16   0.23   0.32     0.24   0.17  -0.33    -0.07   0.07   0.07
   9   1     0.32  -0.17  -0.22    -0.11  -0.13   0.41    -0.07   0.07   0.07
  10   1     0.15   0.05   0.09     0.58   0.21   0.36    -0.16   0.17   0.16
                     10                     11                     12
                        a                      a                      a 
 Frequencies --  1370.1832              1451.2054               953.1178
 Red. masses --    99.0000                99.0000                99.0000
 Frc consts  --    99.0000                99.0000                99.0000
 IR Inten    --    99.0000                99.0000                99.0000
 Raman Activ --     0.0000                 0.0000                 0.0000
 Depolar     --     0.0000                 0.0000                 0.0000
 Atom AN      X      Y      Z        X      Y      Z        X      Y      Z
   1   6     0.16   0.16  -0.35    -0.02   0.08  -0.00    -0.02   0.34  -0.17
   2   1    -0.20  -0.06   0.37    -0.08  -0.02   0.10     0.19   0.16  -0.40
   3   1    -0.36  -0.28   0.27     0.21  -0.08  -0.03     0.02  -0.13   0.06
   4   1     0.03  -0.14   0.51    -0.00  -0.18  -0.16     0.00  -0.13   0.05
   5   6    -0.01  -0.01   0.02    -0.02  -0.02   0.04    -0.13   0.00   0.22
   6   8     0.01  -0.01  -0.00    -0.01   0.06  -0.01    -0.05   0.02   0.08
   7   6    -0.06   0.09   0.04     0.08   0.11  -0.19     0.10  -0.38   0.05
   8   1     0.01  -0.13  -0.11    -0.26  -0.50   0.10     0.21  -0.05  -0.26
   9   1     0.15  -0.07  -0.02     0.24  -0.32   0.40     0.17  -0.06  -0.29
  10   1     0.06  -0.09  -0.05    -0.19   0.31   0.13    -0.20   0.25   0.18
                     13                     14                     15
                        a                      a                      a 
 Frequencies --  1064.6841              1191.4784              1452.1787
 Red. masses --    99.0000                99.0000                99.0000
 Frc consts  --    99.0000                99.0000                99.0000
 IR Inten    --    99.0000                99.0000                99.0000
 Raman Activ --     0.0000                 0.0000                 0.0000
 Depolar     --     0.0000                 0.0000                 0.0000
 Atom AN      X      Y      Z        X      Y      Z        X      Y      Z
   1   6    -0.15   0.35   0.05     0.14  -0.01  -0.22     0.18   0.06   0.11
   2   1     0.20   0.17  -0.42    -0.01  -0.01   0.03    -0.58  -0.20  -0.36
   3   1     0.02  -0.21   0.15     0.00   0.16  -0.13    -0.15   0.40  -0.15
   4   1    -0.03  -0.23   0.12     0.03   0.17  -0.11     0.02  -0.44   0.07
   5   6     0.05  -0.13  -0.00    -0.41  -0.01   0.68     0.05   0.02   0.03
   6   8     0.07  -0.32   0.06     0.06  -0.01  -0.09    -0.01  -0.00  -0.00
   7   6    -0.01   0.27  -0.14     0.15   0.02  -0.26     0.03   0.01   0.03
   8   1    -0.15   0.03   0.20    -0.03  -0.04   0.02    -0.05  -0.02   0.07
   9   1    -0.13   0.04   0.21     0.01  -0.03   0.04     0.02   0.03  -0.10
  10   1     0.19  -0.23  -0.18     0.19  -0.22  -0.18    -0.12  -0.05  -0.08
                     16                     17                     18
                        a                      a                      a 
 Frequencies --  1364.4290              1466.0240              1776.7865
 Red. masses --    99.0000                99.0000                99.0000
 Frc consts  --    99.0000                99.0000                99.0000
 IR Inten    --    99.0000                99.0000                99.0000
 Raman Activ --     0.0000                 0.0000                 0.0000
 Depolar     --     0.0000                 0.0000                 0.0000
 Atom AN      X      Y      Z        X      Y      Z        X      Y      Z
   1   6    -0.06  -0.04   0.12     0.05  -0.22   0.05     0.01  -0.05   0.02
   2   1     0.06   0.02  -0.11     0.21   0.05  -0.37    -0.02  -0.01   0.04
   3   1     0.12   0.07  -0.07    -0.48   0.28   0.02    -0.01   0.02  -0.01
   4   1    -0.01   0.02  -0.15     0.01   0.45   0.32     0.00   0.02  -0.00
   5   6     0.04  -0.00  -0.06     0.04  -0.02  -0.06    -0.20   0.75  -0.12
   6   8    -0.00  -0.01   0.01    -0.01   0.02   0.00     0.15  -0.58   0.09
   7   6    -0.25   0.26   0.25     0.02   0.05  -0.06     0.02  -0.04  -0.01
   8   1     0.09  -0.31  -0.40    -0.10  -0.20   0.03    -0.00  -0.04  -0.02
   9   1     0.45  -0.18  -0.18     0.10  -0.13   0.16     0.04  -0.02   0.00
  10   1     0.22  -0.34  -0.16    -0.07   0.12   0.05    -0.03   0.05   0.02
                     19                     20                     21
                        a                      a                      a 
 Frequencies --  3026.0585              3023.0048              3036.3282
 Red. masses --    99.0000                99.0000                99.0000
 Frc consts  --    99.0000                99.0000                99.0000
 IR Inten    --    99.0000                99.0000                99.0000
 Raman Activ --     0.0000                 0.0000                 0.0000
 Depolar     --     0.0000                 0.0000                 0.0000
 Atom AN      X      Y      Z        X      Y      Z        X      Y      Z
   1   6     0.21   0.07   0.13    -0.12  -0.04  -0.07    -0.11   0.06   0.15
   2   1     0.03   0.01   0.02    -0.02  -0.01  -0.01    -0.06   0.13   0.02
   3   1    -0.17  -0.28  -0.49     0.09   0.15   0.27    -0.24  -0.32  -0.56
   4   1    -0.59   0.01   0.03     0.33  -0.01  -0.01     0.68   0.01   0.01
   5   6     0.01   0.00   0.00     0.00   0.00   0.00    -0.00  -0.00   0.01
   6   8    -0.00  -0.00  -0.00    -0.00   0.00  -0.00     0.00   0.00  -0.00
   7   6     0.12   0.04   0.07     0.21   0.07   0.13    -0.00   0.02  -0.01
   8   1    -0.28   0.12  -0.16    -0.49   0.22  -0.29     0.05  -0.02   0.03
   9   1    -0.15  -0.25  -0.10    -0.28  -0.47  -0.18    -0.03  -0.05  -0.02
  10   1     0.01   0.00   0.01     0.03   0.01   0.02    -0.00  -0.00   0.01
                     22                     23                     24
                        a                      a                      a 
 Frequencies --  3057.3669              3029.3511              3063.0308
 Red. masses --    99.0000                99.0000                99.0000
 Frc consts  --    99.0000                99.0000                99.0000
 IR Inten    --    99.0000                99.0000                99.0000
 Raman Activ --     0.0000                 0.0000                 0.0000
 Depolar     --     0.0000                 0.0000                 0.0000
 Atom AN      X      Y      Z        X      Y      Z        X      Y      Z
   1   6     0.03  -0.08  -0.01     0.02  -0.02  -0.01    -0.10   0.24   0.02
   2   1    -0.10   0.27   0.01    -0.02   0.05   0.00     0.31  -0.85  -0.01
   3   1     0.02   0.01   0.03     0.02   0.03   0.05    -0.04  -0.01  -0.06
   4   1    -0.04  -0.01  -0.00    -0.07  -0.00  -0.00     0.06   0.03   0.00
   5   6     0.00   0.00  -0.01    -0.00   0.01  -0.00    -0.00   0.01  -0.00
   6   8    -0.00  -0.00   0.00     0.00  -0.00   0.00     0.00  -0.00  -0.00
   7   6     0.06   0.16  -0.19    -0.05   0.18  -0.00     0.02   0.06  -0.06
   8   1     0.05   0.00   0.00     0.54  -0.19   0.32     0.06  -0.01   0.03
   9   1    -0.02  -0.02  -0.04    -0.38  -0.55  -0.24    -0.03  -0.05  -0.03
  10   1    -0.24  -0.53   0.70     0.02   0.08  -0.08    -0.08  -0.17   0.22
