 Entering Gaussian System
 *********************************************
 Gaussian 98:
 frequency output generated by the xtb code
 *********************************************
                         Standard orientation:
 --------------------------------------------------------------------
  Center     Atomic     Atomic              Coordinates (Angstroms)
  Number     Number      Type              X           Y           Z
 --------------------------------------------------------------------
    1          6             0       -2.800574   -0.277319   -0.044799
    2          1             0       -2.442559   -1.303775    0.002381
    3          1             0       -2.406431    0.181900   -0.948685
    4          1             0       -3.886074   -0.297913   -0.115944
    5          6             0       -2.360985    0.500985    1.189458
    6          1             0       -1.269505    0.515702    1.238716
    7          1             0       -2.704988    1.532655    1.100314
    8          6             0       -2.913523   -0.118820    2.471327
    9          1             0       -4.004887   -0.065556    2.456145
   10          1             0       -2.636149   -1.175976    2.495109
   11          6             0       -2.394225    0.550173    3.744299
   12          1             0       -2.723152   -0.037868    4.604795
   13          1             0       -1.301675    0.539221    3.736358
   14          6             0       -2.883991    1.983723    3.913656
   15          1             0       -2.491362    2.626033    3.129733
   16          1             0       -3.970870    2.020988    3.878204
   17          1             0       -2.558885    2.382868    4.871997
 --------------------------------------------------------------------
     1 basis functions        1 primitive gaussians
     1 alpha electrons        1 beta electrons
 
 Harmonic frequencies (cm**-1), IR intensities (KM/Mole),
 Raman scattering activities (A**4/amu), Raman depolarization ratios,
 reduced masses (AMU), force constants (mDyne/A) and normal coordinates:
                      1                      2                      3
                        a                      a                      a 
 Frequencies --    72.2594               115.0387               213.8526
 Red. masses --     6.3716                 6.3110                 4.3497
 Frc consts  --     0.0000                 0.0000                 0.0000
 IR Inten    --     0.0450                 0.0102                 0.0149
 Raman Activ --     0.0000                 0.0000                 0.0000
 Depolar     --     0.0000                 0.0000                 0.0000
 Atom AN      X      Y      Z        X      Y      Z        X      Y      Z
   1   6    -0.29   0.15  -0.02     0.17  -0.26  -0.05     0.12   0.25  -0.04
   2   1    -0.33  -0.04  -0.03     0.03  -0.08   0.07     0.04   0.07  -0.08
   3   1     0.00  -0.04  -0.01     0.11  -0.14  -0.02     0.08   0.15   0.05
   4   1    -0.09   0.30   0.02     0.05  -0.07  -0.07     0.04   0.08  -0.07
   5   6     0.41  -0.27  -0.01    -0.01  -0.00  -0.14    -0.09  -0.08   0.22
   6   1     0.12  -0.29  -0.04    -0.01  -0.02   0.01    -0.03  -0.01   0.10
   7   1     0.32  -0.01   0.03     0.02   0.00  -0.12    -0.03  -0.02   0.10
   8   6     0.15   0.01   0.01    -0.25   0.28  -0.10    -0.12  -0.21   0.14
   9   1     0.05   0.05  -0.04    -0.07   0.21  -0.02    -0.03  -0.07   0.05
  10   1    -0.01  -0.01   0.05    -0.20   0.05  -0.03    -0.02  -0.06   0.04
  11   6     0.08   0.12  -0.02     0.11   0.07  -0.13     0.00  -0.03  -0.00
  12   1     0.08   0.01   0.00     0.15  -0.05  -0.04     0.04   0.05   0.05
  13   1     0.02   0.12  -0.03     0.03   0.06  -0.16     0.00  -0.01  -0.05
  14   6    -0.30  -0.02   0.04    -0.04  -0.05   0.41     0.04   0.01  -0.29
  15   1    -0.19   0.02  -0.02    -0.26   0.02   0.02    -0.31  -0.13  -0.35
  16   1    -0.09  -0.10   0.07    -0.02  -0.08   0.41    -0.00  -0.04   0.32
  17   1    -0.07   0.03  -0.01     0.22  -0.01   0.04     0.36   0.20  -0.28
                      4                      5                      6
                        a                      a                      a 
 Frequencies --   231.0953               282.8069               330.9677
 Red. masses --     2.0881                 5.6740                 8.2168
 Frc consts  --     0.0000                 0.0000                 0.0000
 IR Inten    --     0.0174                 0.0244                 0.0578
 Raman Activ --     0.0000                 0.0000                 0.0000
 Depolar     --     0.0000                 0.0000                 0.0000
 Atom AN      X      Y      Z        X      Y      Z        X      Y      Z
   1   6     0.07   0.00  -0.00    -0.14  -0.12   0.12     0.03   0.01  -0.41
   2   1    -0.37  -0.12   0.28    -0.12  -0.06   0.16     0.01  -0.00  -0.21
   3   1     0.48  -0.29   0.05    -0.03  -0.18  -0.03     0.07   0.10  -0.04
   4   1     0.04   0.39  -0.34    -0.04   0.04   0.07     0.01   0.02  -0.19
   5   6    -0.23   0.11   0.03     0.12   0.23  -0.18    -0.13  -0.30  -0.11
   6   1    -0.07   0.12   0.02     0.04   0.12  -0.11    -0.04  -0.05  -0.05
   7   1    -0.15   0.01   0.01    -0.03   0.04  -0.07    -0.06  -0.09   0.01
   8   6     0.02  -0.07   0.05     0.32   0.05  -0.18     0.12  -0.23   0.07
   9   1     0.00  -0.09   0.06     0.08  -0.12  -0.11     0.03  -0.22   0.01
  10   1     0.08  -0.00  -0.01     0.21   0.05  -0.07     0.19  -0.03   0.12
  11   6     0.11  -0.00  -0.02    -0.31  -0.11   0.16    -0.17   0.21   0.05
  12   1     0.07  -0.00   0.01    -0.29  -0.03  -0.03    -0.08   0.06   0.01
  13   1     0.03   0.02  -0.04    -0.09  -0.12   0.24    -0.05   0.04   0.06
  14   6     0.01  -0.04  -0.05     0.05   0.01   0.06     0.08   0.29   0.36
  15   1     0.05   0.01   0.03    -0.13  -0.10  -0.14     0.04   0.12   0.14
  16   1     0.00  -0.03  -0.09     0.01   0.06   0.26     0.02   0.17   0.15
  17   1    -0.07  -0.02   0.02     0.26   0.08  -0.10     0.09  -0.02   0.13
                      7                      8                      9
                        a                      a                      a 
 Frequencies --   470.4087               776.0570               807.7570
 Red. masses --     8.0315                 2.2714                 2.8699
 Frc consts  --     0.0000                 0.0000                 0.0000
 IR Inten    --     0.0178                 0.0439                 0.0328
 Raman Activ --     0.0000                 0.0000                 0.0000
 Depolar     --     0.0000                 0.0000                 0.0000
 Atom AN      X      Y      Z        X      Y      Z        X      Y      Z
   1   6     0.02   0.06   0.35    -0.03  -0.00  -0.05     0.03  -0.03  -0.08
   2   1    -0.01   0.01   0.15     0.13   0.05   0.12    -0.12  -0.06  -0.10
   3   1    -0.04  -0.05   0.05     0.04  -0.05  -0.02    -0.09  -0.03  -0.08
   4   1    -0.00   0.02   0.17     0.01  -0.16  -0.12    -0.01   0.13   0.14
   5   6     0.11   0.07   0.18    -0.11   0.16  -0.05     0.21   0.03  -0.08
   6   1     0.03   0.01   0.09    -0.02  -0.41   0.05     0.05   0.28  -0.02
   7   1     0.03   0.02   0.11     0.40   0.18  -0.08    -0.20  -0.08  -0.06
   8   6    -0.10  -0.32  -0.22    -0.14   0.13   0.04    -0.06  -0.08   0.03
   9   1    -0.03  -0.23  -0.13    -0.05  -0.36   0.06    -0.01   0.03  -0.13
  10   1     0.12  -0.05  -0.03     0.35   0.13  -0.08    -0.07  -0.04   0.02
  11   6    -0.17   0.08  -0.49    -0.07  -0.03   0.14    -0.17  -0.09   0.23
  12   1     0.09   0.03  -0.09     0.20  -0.09   0.07     0.40  -0.14   0.15
  13   1    -0.05   0.06  -0.26    -0.02   0.10  -0.17    -0.04   0.28  -0.29
  14   6     0.05   0.12   0.08     0.02  -0.07   0.02    -0.07   0.02   0.07
  15   1     0.03   0.15   0.12     0.10  -0.17  -0.07     0.21  -0.26  -0.09
  16   1     0.02   0.13   0.09     0.01   0.07  -0.06    -0.00   0.29  -0.07
  17   1     0.10  -0.16   0.08     0.01   0.09  -0.04     0.06   0.13  -0.06
                     10                     11                     12
                        a                      a                      a 
 Frequencies --   887.0720               902.7503               965.9509
 Red. masses --     4.2628                 5.2857                 6.3025
 Frc consts  --     0.0000                 0.0000                 0.0000
 IR Inten    --     0.0502                 0.0608                 0.0923
 Raman Activ --     0.0000                 0.0000                 0.0000
 Depolar     --     0.0000                 0.0000                 0.0000
 Atom AN      X      Y      Z        X      Y      Z        X      Y      Z
   1   6    -0.09   0.11  -0.08     0.09   0.00  -0.19    -0.02  -0.00   0.29
   2   1     0.18   0.11   0.34    -0.10  -0.04   0.04     0.03   0.00  -0.11
   3   1     0.04  -0.20  -0.11    -0.18  -0.20  -0.24     0.13   0.22   0.25
   4   1    -0.01  -0.24  -0.16    -0.00   0.08   0.24     0.01   0.02  -0.10
   5   6    -0.02   0.15  -0.08     0.15   0.16  -0.12    -0.11  -0.16   0.01
   6   1     0.01  -0.13  -0.20     0.03   0.08   0.16    -0.03  -0.05  -0.05
   7   1     0.12   0.10   0.27     0.01   0.03  -0.05    -0.04  -0.05  -0.06
   8   6     0.09  -0.39  -0.05    -0.33  -0.24  -0.01     0.01  -0.05  -0.40
   9   1     0.04   0.25  -0.01    -0.09  -0.21  -0.00     0.00  -0.02  -0.17
  10   1    -0.32  -0.19  -0.07     0.05  -0.03  -0.03    -0.00  -0.02  -0.19
  11   6     0.07  -0.09   0.12     0.16  -0.01   0.18     0.15  -0.13   0.09
  12   1     0.06   0.01   0.08    -0.03   0.14   0.12     0.03  -0.15  -0.06
  13   1     0.02   0.09   0.06     0.04  -0.24  -0.01     0.04  -0.10  -0.01
  14   6    -0.09   0.20   0.03     0.10   0.19   0.08    -0.00   0.31   0.23
  15   1     0.02   0.04   0.01    -0.17   0.14   0.00    -0.03  -0.09  -0.10
  16   1    -0.02   0.14   0.03     0.01  -0.30  -0.04    -0.00  -0.08  -0.11
  17   1     0.02   0.05  -0.00    -0.19   0.20   0.03    -0.18   0.43  -0.03
                     13                     14                     15
                        a                      a                      a 
 Frequencies --  1006.7885              1045.0960              1090.9470
 Red. masses --     3.1971                 3.9172                 8.9649
 Frc consts  --     0.0000                 0.0000                 0.0000
 IR Inten    --     0.0261                 0.0208                 0.0263
 Raman Activ --     0.0000                 0.0000                 0.0000
 Depolar     --     0.0000                 0.0000                 0.0000
 Atom AN      X      Y      Z        X      Y      Z        X      Y      Z
   1   6    -0.15   0.04   0.00    -0.10  -0.20   0.08     0.19   0.29   0.36
   2   1     0.12   0.07   0.12    -0.02  -0.06  -0.26     0.04   0.07   0.14
   3   1     0.11   0.00   0.06     0.11   0.22   0.21     0.02   0.05   0.07
   4   1    -0.02  -0.16  -0.22    -0.01   0.02  -0.18     0.04   0.10   0.17
   5   6     0.15  -0.03  -0.00     0.10   0.21  -0.01    -0.13  -0.21  -0.54
   6   1     0.05   0.11  -0.31     0.03   0.01  -0.11    -0.03  -0.08  -0.21
   7   1    -0.10  -0.04   0.18     0.07   0.05  -0.20    -0.01  -0.06  -0.25
   8   6    -0.02   0.09   0.09    -0.02  -0.07   0.07    -0.11  -0.13  -0.02
   9   1    -0.00  -0.03  -0.38    -0.00  -0.00  -0.07    -0.03  -0.04   0.05
  10   1     0.04   0.04   0.32    -0.02  -0.03  -0.25    -0.04  -0.04   0.06
  11   6    -0.21   0.14   0.03    -0.03  -0.20   0.20    -0.01   0.18   0.16
  12   1     0.07   0.11   0.10     0.14   0.20   0.28     0.01   0.15   0.12
  13   1    -0.06  -0.16  -0.28    -0.01  -0.04  -0.12    -0.00   0.10   0.07
  14   6     0.21  -0.16   0.02    -0.02   0.14  -0.21     0.05  -0.15  -0.05
  15   1    -0.08  -0.00  -0.03    -0.11   0.33   0.14     0.01   0.00   0.03
  16   1     0.04  -0.32  -0.06    -0.01  -0.00   0.12     0.01  -0.03   0.03
  17   1    -0.12   0.08   0.01     0.05  -0.28   0.06     0.04  -0.13   0.02
                     16                     17                     18
                        a                      a                      a 
 Frequencies --  1131.2436              1155.3330              1185.4307
 Red. masses --     7.9892                 7.0958                 6.7208
 Frc consts  --     0.0000                 0.0000                 0.0000
 IR Inten    --     0.0903                 0.0493                 0.0511
 Raman Activ --     0.0000                 0.0000                 0.0000
 Depolar     --     0.0000                 0.0000                 0.0000
 Atom AN      X      Y      Z        X      Y      Z        X      Y      Z
   1   6     0.08   0.16   0.05     0.07   0.14  -0.08     0.18  -0.04  -0.03
   2   1     0.03   0.05   0.12    -0.00   0.03   0.18    -0.10  -0.06  -0.07
   3   1    -0.01  -0.05  -0.04    -0.07  -0.14  -0.14    -0.09  -0.01  -0.07
   4   1     0.02   0.01   0.08     0.01  -0.02   0.13     0.03   0.13   0.19
   5   6    -0.01  -0.14  -0.18    -0.18  -0.34   0.17    -0.31   0.05   0.04
   6   1     0.00   0.01  -0.17    -0.05  -0.03   0.15    -0.08  -0.19   0.07
   7   1    -0.03  -0.05  -0.06    -0.11  -0.09   0.21     0.13   0.08  -0.03
   8   6     0.09   0.19   0.34     0.07   0.29  -0.33     0.39  -0.04   0.05
   9   1     0.02  -0.02   0.16     0.02  -0.04  -0.28     0.10   0.23   0.07
  10   1     0.07   0.06   0.16     0.10   0.09  -0.11    -0.14  -0.07  -0.12
  11   6    -0.02  -0.48  -0.17     0.05  -0.10   0.31    -0.40  -0.00  -0.05
  12   1     0.04  -0.20  -0.08     0.12  -0.01   0.13     0.11   0.01   0.07
  13   1    -0.01  -0.31  -0.24     0.01   0.05  -0.03    -0.10   0.09  -0.22
  14   6    -0.13   0.33  -0.04    -0.01   0.06  -0.20     0.24   0.01   0.04
  15   1    -0.06   0.15   0.03    -0.05   0.22   0.09    -0.11   0.05  -0.03
  16   1    -0.04   0.10   0.03    -0.01   0.01   0.10     0.05  -0.29  -0.05
  17   1    -0.03   0.03   0.01     0.05  -0.20   0.03    -0.13   0.11   0.03
                     19                     20                     21
                        a                      a                      a 
 Frequencies --  1242.2817              1266.2874              1287.9693
 Red. masses --     4.0275                 2.9813                 1.9238
 Frc consts  --     0.0000                 0.0000                 0.0000
 IR Inten    --     0.0323                 0.0120                 0.0098
 Raman Activ --     0.0000                 0.0000                 0.0000
 Depolar     --     0.0000                 0.0000                 0.0000
 Atom AN      X      Y      Z        X      Y      Z        X      Y      Z
   1   6    -0.24   0.17  -0.01     0.05  -0.13   0.05    -0.11   0.05   0.00
   2   1     0.15   0.12   0.19    -0.04  -0.05  -0.12     0.05   0.04   0.05
   3   1     0.10  -0.07   0.01    -0.00   0.08   0.06     0.02   0.01   0.02
   4   1    -0.04  -0.19  -0.18     0.01   0.09   0.02    -0.02  -0.05  -0.08
   5   6     0.27  -0.19  -0.00     0.02   0.14  -0.13    -0.09   0.11  -0.05
   6   1     0.05   0.19   0.26     0.01  -0.03  -0.14    -0.04  -0.02   0.50
   7   1    -0.13  -0.13  -0.26     0.02   0.07   0.30     0.09   0.03  -0.44
   8   6    -0.01   0.02   0.00    -0.16  -0.02  -0.07     0.13  -0.13   0.01
   9   1    -0.01  -0.01   0.36    -0.05  -0.08   0.08     0.04   0.08  -0.39
  10   1     0.01   0.00  -0.26     0.01   0.02   0.31    -0.09  -0.05   0.48
  11   6    -0.21  -0.04  -0.02    -0.05  -0.09   0.13     0.06  -0.03   0.05
  12   1     0.06  -0.11  -0.03     0.06  -0.46  -0.24     0.03  -0.15  -0.08
  13   1    -0.05   0.28   0.06    -0.01   0.38   0.20     0.02  -0.01   0.03
  14   6     0.19   0.04  -0.02     0.17   0.09  -0.16    -0.02   0.06  -0.05
  15   1    -0.10   0.09  -0.02    -0.11   0.22   0.05    -0.01   0.04   0.01
  16   1     0.04  -0.19  -0.02     0.03  -0.16   0.05    -0.00   0.01   0.02
  17   1    -0.09   0.02   0.04    -0.05  -0.05   0.02     0.01  -0.06   0.01
                     22                     23                     24
                        a                      a                      a 
 Frequencies --  1311.4615              1354.2276              1374.9596
 Red. masses --     3.5291                 4.6125                 5.1887
 Frc consts  --     0.0000                 0.0000                 0.0000
 IR Inten    --     0.0621                 0.1052                 0.0121
 Raman Activ --     0.0000                 0.0000                 0.0000
 Depolar     --     0.0000                 0.0000                 0.0000
 Atom AN      X      Y      Z        X      Y      Z        X      Y      Z
   1   6     0.09   0.11  -0.06    -0.02  -0.00   0.01     0.04   0.05  -0.05
   2   1    -0.05  -0.00   0.02     0.01   0.00  -0.01    -0.06  -0.01  -0.01
   3   1    -0.08  -0.12  -0.13     0.02  -0.00   0.01    -0.04  -0.06  -0.07
   4   1     0.02  -0.04   0.04    -0.00  -0.01  -0.01     0.01  -0.06  -0.00
   5   6    -0.06  -0.03   0.32     0.03   0.00  -0.01     0.00   0.05   0.39
   6   1     0.01  -0.03  -0.43     0.01   0.01   0.02     0.02  -0.04  -0.34
   7   1     0.02  -0.03  -0.41    -0.00  -0.00   0.00    -0.01  -0.03  -0.35
   8   6    -0.10  -0.06   0.27     0.04  -0.12  -0.02     0.00  -0.04  -0.45
   9   1    -0.02  -0.04  -0.38     0.01   0.03   0.14    -0.00   0.05   0.40
  10   1     0.01  -0.01  -0.27    -0.06  -0.05  -0.18     0.02   0.01   0.42
  11   6     0.06   0.05  -0.05    -0.02   0.44   0.31    -0.02  -0.02   0.10
  12   1    -0.06  -0.21  -0.19     0.00  -0.43  -0.29     0.03   0.07   0.09
  13   1     0.02   0.18   0.16    -0.01  -0.43  -0.31    -0.01  -0.06  -0.08
  14   6     0.05   0.05  -0.02    -0.07   0.02  -0.12    -0.00  -0.01  -0.02
  15   1    -0.02   0.01  -0.02     0.09  -0.03   0.00    -0.01   0.02   0.01
  16   1     0.01  -0.07  -0.00    -0.02  -0.07   0.06    -0.00   0.04   0.03
  17   1    -0.01  -0.04   0.02     0.09  -0.20   0.02    -0.03  -0.02   0.01
                     25                     26                     27
                        a                      a                      a 
 Frequencies --  1415.3506              1417.2415              1491.8744
 Red. masses --     3.2321                 3.1542                 1.8894
 Frc consts  --     0.0000                 0.0000                 0.0000
 IR Inten    --     0.0416                 0.0522                 0.0331
 Raman Activ --     0.0000                 0.0000                 0.0000
 Depolar     --     0.0000                 0.0000                 0.0000
 Atom AN      X      Y      Z        X      Y      Z        X      Y      Z
   1   6    -0.05  -0.12  -0.19     0.10   0.17   0.31     0.00   0.02  -0.01
   2   1     0.10   0.04   0.24    -0.17  -0.07  -0.40    -0.05  -0.02  -0.00
   3   1     0.12   0.19   0.14    -0.21  -0.31  -0.23     0.06   0.01   0.03
   4   1    -0.02   0.13   0.23     0.04  -0.21  -0.39    -0.00  -0.06   0.06
   5   6     0.00   0.01   0.04     0.01   0.01  -0.06    -0.01  -0.01  -0.02
   6   1     0.00  -0.00  -0.05    -0.00  -0.06   0.06    -0.00  -0.01   0.01
   7   1     0.00   0.00  -0.00    -0.06  -0.01   0.08    -0.01  -0.00   0.03
   8   6    -0.01   0.03  -0.03     0.01   0.03  -0.01    -0.15  -0.16   0.01
   9   1    -0.01  -0.04   0.01     0.00  -0.01   0.02     0.02   0.52  -0.02
  10   1    -0.02   0.00   0.05    -0.00   0.01   0.03     0.51   0.13  -0.02
  11   6    -0.00  -0.07  -0.05    -0.01  -0.05  -0.03    -0.10   0.08  -0.11
  12   1     0.04   0.06   0.06     0.04   0.04   0.05     0.38  -0.08   0.09
  13   1     0.00   0.05   0.08     0.00   0.01   0.05    -0.00  -0.23   0.33
  14   6    -0.11   0.35   0.06    -0.07   0.21   0.03     0.02   0.01  -0.04
  15   1     0.20  -0.33  -0.19     0.13  -0.20  -0.11     0.01  -0.04  -0.04
  16   1    -0.02  -0.43  -0.08    -0.01  -0.26  -0.05    -0.00   0.03   0.10
  17   1     0.20  -0.36   0.10     0.12  -0.21   0.05    -0.11  -0.02   0.04
                     28                     29                     30
                        a                      a                      a 
 Frequencies --  1494.6889              1497.5266              1505.9131
 Red. masses --     1.7740                 1.9578                 1.5374
 Frc consts  --     0.0000                 0.0000                 0.0000
 IR Inten    --     0.0227                 0.0496                 0.0259
 Raman Activ --     0.0000                 0.0000                 0.0000
 Depolar     --     0.0000                 0.0000                 0.0000
 Atom AN      X      Y      Z        X      Y      Z        X      Y      Z
   1   6    -0.02  -0.02  -0.01     0.01   0.03   0.01     0.17  -0.13   0.02
   2   1     0.09   0.03  -0.00    -0.09  -0.03  -0.01    -0.13  -0.04   0.43
   3   1     0.01  -0.02  -0.00     0.03   0.01   0.02    -0.59   0.39  -0.05
   4   1    -0.00   0.09   0.02     0.00  -0.11   0.02     0.04   0.17  -0.45
   5   6     0.12   0.17  -0.02    -0.09  -0.12  -0.03     0.03  -0.04   0.00
   6   1     0.01  -0.50   0.05    -0.01   0.36   0.01     0.01   0.04   0.02
   7   1    -0.48  -0.15  -0.02     0.34   0.11   0.03     0.01  -0.01  -0.01
   8   6    -0.03  -0.05   0.04    -0.09  -0.12   0.00    -0.01  -0.01   0.00
   9   1     0.01   0.16  -0.03     0.01   0.33  -0.00     0.00   0.03   0.02
  10   1     0.15   0.04  -0.02     0.32   0.08   0.02     0.03   0.01  -0.02
  11   6     0.07  -0.07   0.05     0.11  -0.10   0.12    -0.00   0.01  -0.00
  12   1    -0.27   0.06  -0.06    -0.42   0.08  -0.10     0.00   0.00   0.00
  13   1     0.00   0.16  -0.22     0.00   0.26  -0.36     0.00  -0.01   0.00
  14   6     0.01   0.03  -0.09    -0.02   0.04  -0.01     0.02   0.01  -0.02
  15   1     0.18  -0.09   0.01     0.08  -0.04   0.01    -0.01  -0.04  -0.04
  16   1    -0.01  -0.04   0.32    -0.00  -0.08   0.04     0.00   0.03   0.06
  17   1    -0.22   0.04   0.06     0.02  -0.01   0.00    -0.08  -0.03   0.04
                     31                     32                     33
                        a                      a                      a 
 Frequencies --  1507.6340              1508.4720              1511.3063
 Red. masses --     1.6536                 1.6221                 1.5613
 Frc consts  --     0.0000                 0.0000                 0.0000
 IR Inten    --     0.0220                 0.0244                 0.0269
 Raman Activ --     0.0000                 0.0000                 0.0000
 Depolar     --     0.0000                 0.0000                 0.0000
 Atom AN      X      Y      Z        X      Y      Z        X      Y      Z
   1   6     0.01  -0.01  -0.01     0.12   0.13  -0.11    -0.00  -0.02   0.01
   2   1    -0.01  -0.00   0.05    -0.59  -0.19   0.16     0.07   0.02   0.03
   3   1    -0.04   0.05   0.00     0.11   0.26   0.16    -0.06   0.00  -0.03
   4   1     0.00   0.02  -0.03     0.01  -0.59   0.14     0.00   0.09  -0.05
   5   6     0.06   0.08  -0.01     0.05   0.07  -0.05     0.00  -0.01   0.02
   6   1     0.00  -0.24   0.02     0.01  -0.10   0.04     0.00   0.01  -0.01
   7   1    -0.24  -0.08  -0.01    -0.10  -0.03   0.02     0.00  -0.01  -0.05
   8   6    -0.05  -0.07   0.00     0.02   0.02   0.02    -0.00  -0.01   0.00
   9   1     0.01   0.20  -0.00    -0.00  -0.08  -0.00     0.00   0.04   0.02
  10   1     0.19   0.05  -0.00    -0.08  -0.02  -0.01     0.03   0.01  -0.00
  11   6     0.02  -0.01   0.08    -0.00   0.00  -0.01    -0.06  -0.01  -0.04
  12   1    -0.10  -0.02  -0.04     0.00  -0.00  -0.00     0.08  -0.01   0.02
  13   1    -0.00   0.05  -0.10    -0.00   0.00   0.01    -0.01  -0.01   0.07
  14   6    -0.04  -0.04   0.18    -0.02  -0.01  -0.01    -0.19  -0.06  -0.05
  15   1    -0.31   0.17   0.00     0.07   0.02   0.06     0.47   0.23   0.42
  16   1     0.02   0.03  -0.61    -0.00  -0.04   0.04    -0.03  -0.34   0.07
  17   1     0.44  -0.06  -0.11     0.02   0.05  -0.03     0.35   0.37  -0.28
                     34                     35                     36
                        a                      a                      a 
 Frequencies --  2956.5127              2960.7847              2968.5517
 Red. masses --     1.9124                 1.9115                 1.7506
 Frc consts  --     0.0000                 0.0000                 0.0000
 IR Inten    --     0.1262                 0.1746                 0.1931
 Raman Activ --     0.0000                 0.0000                 0.0000
 Depolar     --     0.0000                 0.0000                 0.0000
 Atom AN      X      Y      Z        X      Y      Z        X      Y      Z
   1   6     0.00   0.00  -0.00     0.00   0.00  -0.00    -0.02   0.01   0.00
   2   1    -0.00   0.01   0.00     0.00   0.00   0.00     0.02  -0.06   0.00
   3   1    -0.00  -0.00   0.01    -0.00  -0.00   0.01     0.00   0.01  -0.01
   4   1    -0.02  -0.00  -0.00    -0.02  -0.00  -0.00     0.07   0.00   0.01
   5   6    -0.10   0.05  -0.01    -0.05   0.01  -0.00     0.22  -0.05   0.01
   6   1     0.32   0.01   0.01     0.16   0.00   0.01    -0.77  -0.00  -0.04
   7   1     0.06  -0.20   0.02     0.01  -0.04   0.00    -0.02   0.15  -0.01
   8   6     0.19  -0.18   0.01    -0.03  -0.05  -0.00     0.01  -0.11   0.00
   9   1    -0.55   0.01  -0.01     0.19  -0.02   0.00     0.12  -0.02   0.00
  10   1    -0.16   0.64  -0.01    -0.06   0.20  -0.00    -0.13   0.44  -0.01
  11   6    -0.05  -0.00  -0.00     0.21   0.10  -0.15    -0.04   0.02  -0.04
  12   1    -0.01  -0.01   0.01    -0.21  -0.39   0.56    -0.07  -0.10   0.14
  13   1     0.21   0.00  -0.00    -0.54   0.02  -0.01     0.21   0.00  -0.01
  14   6    -0.00   0.00  -0.00    -0.02  -0.01   0.01     0.00   0.00   0.00
  15   1    -0.00  -0.00   0.00     0.02   0.04  -0.05     0.00   0.00  -0.00
  16   1     0.00   0.00   0.00     0.06  -0.00   0.00    -0.00   0.00   0.00
  17   1     0.00   0.00   0.00    -0.01  -0.01  -0.01    -0.00  -0.01  -0.01
                     37                     38                     39
                        a                      a                      a 
 Frequencies --  2976.9568              2979.2188              2989.7491
 Red. masses --     1.5380                 1.6648                 1.5936
 Frc consts  --     0.0000                 0.0000                 0.0000
 IR Inten    --     0.2363                 0.3732                 0.2458
 Raman Activ --     0.0000                 0.0000                 0.0000
 Depolar     --     0.0000                 0.0000                 0.0000
 Atom AN      X      Y      Z        X      Y      Z        X      Y      Z
   1   6     0.02   0.00  -0.00    -0.02   0.00   0.00     0.00  -0.04   0.02
   2   1     0.00   0.00   0.00     0.01  -0.03   0.00    -0.05   0.13  -0.00
   3   1    -0.00  -0.01   0.01     0.00   0.01  -0.02     0.03   0.03  -0.07
   4   1    -0.05  -0.00  -0.00     0.06   0.00   0.00     0.01  -0.01   0.00
   5   6    -0.05   0.05  -0.01     0.09  -0.03   0.01     0.00   0.22  -0.02
   6   1     0.11   0.01   0.01    -0.30  -0.00  -0.01    -0.31   0.03  -0.02
   7   1     0.07  -0.20   0.02    -0.03   0.11  -0.01     0.30  -0.82   0.07
   8   6    -0.12  -0.10   0.00     0.13  -0.01   0.00     0.00   0.05  -0.00
   9   1     0.60  -0.06   0.01    -0.47   0.03  -0.01    -0.06   0.01  -0.00
  10   1    -0.14   0.44  -0.01     0.01   0.01   0.00     0.05  -0.18   0.00
  11   6     0.02  -0.07   0.10     0.16  -0.05   0.07     0.01   0.01  -0.01
  12   1     0.17   0.27  -0.39     0.13   0.18  -0.26    -0.02  -0.03   0.05
  13   1    -0.24  -0.01   0.02    -0.69  -0.01   0.03    -0.01   0.00  -0.00
  14   6     0.00   0.00  -0.01    -0.03  -0.01  -0.02    -0.01  -0.01   0.02
  15   1    -0.01  -0.02   0.03    -0.01  -0.01   0.01     0.03   0.04  -0.05
  16   1    -0.00  -0.00  -0.00     0.10  -0.00   0.00     0.00  -0.00   0.00
  17   1     0.01   0.01   0.03     0.02   0.02   0.05    -0.01  -0.01  -0.01
                     40                     41                     42
                        a                      a                      a 
 Frequencies --  3027.5371              3029.1794              3030.2415
 Red. masses --     1.9474                 1.9093                 1.9324
 Frc consts  --     0.0000                 0.0000                 0.0000
 IR Inten    --     0.2178                 0.2826                 0.3263
 Raman Activ --     0.0000                 0.0000                 0.0000
 Depolar     --     0.0000                 0.0000                 0.0000
 Atom AN      X      Y      Z        X      Y      Z        X      Y      Z
   1   6    -0.20   0.18  -0.03     0.01   0.14  -0.07     0.20   0.12  -0.13
   2   1     0.22  -0.67   0.04     0.15  -0.38   0.02     0.10  -0.18  -0.01
   3   1    -0.05   0.01   0.04    -0.11  -0.11   0.24    -0.21  -0.26   0.50
   4   1     0.52   0.03   0.02    -0.07   0.02  -0.01    -0.59   0.01  -0.05
   5   6    -0.03   0.03  -0.00    -0.01   0.03  -0.00     0.03   0.02  -0.00
   6   1     0.06   0.00   0.00    -0.00   0.00  -0.00    -0.09   0.00  -0.00
   7   1     0.04  -0.11   0.01     0.03  -0.08   0.01     0.02  -0.05   0.00
   8   6    -0.00   0.01  -0.00    -0.01   0.01  -0.00     0.01   0.00  -0.00
   9   1     0.00   0.00  -0.00     0.03   0.00   0.00    -0.06   0.00   0.00
  10   1     0.01  -0.02   0.00     0.01  -0.04   0.00     0.01  -0.03   0.00
  11   6     0.01  -0.00   0.00    -0.03   0.00  -0.00     0.02  -0.00   0.00
  12   1     0.00   0.00  -0.01    -0.01  -0.01   0.01     0.00   0.00  -0.00
  13   1    -0.03  -0.00   0.00     0.09   0.00  -0.00    -0.05  -0.00   0.00
  14   6     0.09   0.01   0.05    -0.22  -0.03  -0.08     0.10   0.01   0.06
  15   1     0.03   0.03  -0.02    -0.02   0.02  -0.04     0.03   0.03  -0.02
  16   1    -0.30   0.01  -0.00     0.73  -0.02   0.01    -0.31   0.01  -0.00
  17   1    -0.05  -0.07  -0.16     0.08   0.12   0.30    -0.06  -0.08  -0.20
                     43                     44                     45
                        a                      a                      a 
 Frequencies --  3032.5784              3035.5580              3045.0537
 Red. masses --     1.7229                 1.2693                 1.5180
 Frc consts  --     0.0000                 0.0000                 0.0000
 IR Inten    --     0.2559                 0.1735                 0.2263
 Raman Activ --     0.0000                 0.0000                 0.0000
 Depolar     --     0.0000                 0.0000                 0.0000
 Atom AN      X      Y      Z        X      Y      Z        X      Y      Z
   1   6    -0.00  -0.02   0.02    -0.03  -0.03  -0.15     0.00  -0.01   0.01
   2   1    -0.01   0.03   0.00    -0.16   0.42  -0.04    -0.01   0.03  -0.00
   3   1     0.04   0.04  -0.08    -0.26  -0.31   0.56     0.01   0.01  -0.02
   4   1    -0.01  -0.00   0.00     0.54   0.00   0.01    -0.00  -0.00   0.00
   5   6    -0.00  -0.01   0.00    -0.00  -0.00  -0.01     0.00  -0.01   0.00
   6   1     0.02  -0.00   0.00     0.01  -0.00  -0.00     0.01  -0.00   0.00
   7   1    -0.01   0.04  -0.00    -0.00   0.00  -0.00    -0.02   0.06  -0.00
   8   6    -0.00  -0.00  -0.00    -0.00  -0.00   0.00     0.00  -0.01   0.00
   9   1     0.01  -0.00   0.00     0.01  -0.00  -0.00     0.00  -0.00   0.00
  10   1    -0.00   0.01   0.00    -0.00   0.01  -0.00    -0.01   0.02  -0.00
  11   6    -0.01  -0.01   0.02    -0.00  -0.00   0.00    -0.01  -0.01   0.02
  12   1     0.02   0.04  -0.06     0.00   0.00  -0.01     0.02   0.03  -0.05
  13   1     0.01   0.00   0.00     0.00   0.00   0.00     0.01  -0.00   0.00
  14   6    -0.07   0.03   0.24    -0.01   0.00   0.01    -0.07  -0.16   0.12
  15   1     0.10   0.17  -0.18     0.01   0.01  -0.01     0.34   0.52  -0.68
  16   1     0.43  -0.00   0.05     0.04  -0.00   0.00    -0.15  -0.02   0.01
  17   1    -0.27  -0.29  -0.71    -0.01  -0.01  -0.03     0.07   0.07   0.26
