 Entering Gaussian System
 *********************************************
 Gaussian 98:
 frequency output generated by the xtb code
 *********************************************
                         Standard orientation:
 --------------------------------------------------------------------
  Center     Atomic     Atomic              Coordinates (Angstroms)
  Number     Number      Type              X           Y           Z
 --------------------------------------------------------------------
    1          6             0       -2.800573   -0.277333   -0.044809
    2          1             0       -2.442552   -1.303787    0.002370
    3          1             0       -2.406429    0.181889   -0.948693
    4          1             0       -3.886072   -0.297933   -0.115958
    5          6             0       -2.360992    0.500970    1.189450
    6          1             0       -1.269512    0.515694    1.238713
    7          1             0       -2.705000    1.532639    1.100307
    8          6             0       -2.913531   -0.118840    2.471317
    9          1             0       -4.004895   -0.065581    2.456131
   10          1             0       -2.636151   -1.175995    2.495097
   11          6             0       -2.394241    0.550154    3.744291
   12          1             0       -2.723168   -0.037891    4.604786
   13          1             0       -1.301690    0.539208    3.736355
   14          6             0       -2.884015    1.983701    3.913649
   15          1             0       -2.491387    2.626014    3.129729
   16          1             0       -3.970894    2.020961    3.878194
   17          1             0       -2.558915    2.382846    4.871992
 --------------------------------------------------------------------
     1 basis functions        1 primitive gaussians
     1 alpha electrons        1 beta electrons
 
 Harmonic frequencies (cm**-1), IR intensities (KM/Mole),
 Raman scattering activities (A**4/amu), Raman depolarization ratios,
 reduced masses (AMU), force constants (mDyne/A) and normal coordinates:
                      1                      2                      3
                        a                      a                      a 
 Frequencies --    72.2594               115.0387               231.0953
 Red. masses --    99.0000                99.0000                99.0000
 Frc consts  --    99.0000                99.0000                99.0000
 IR Inten    --    99.0000                99.0000                99.0000
 Raman Activ --     0.0000                 0.0000                 0.0000
 Depolar     --     0.0000                 0.0000                 0.0000
 Atom AN      X      Y      Z        X      Y      Z        X      Y      Z
   1   6    -0.29   0.15  -0.02     0.17  -0.26  -0.05     0.07   0.00  -0.00
   2   1    -0.33  -0.04  -0.03     0.03  -0.08   0.07    -0.37  -0.12   0.28
   3   1     0.00  -0.04  -0.01     0.11  -0.14  -0.02     0.48  -0.29   0.05
   4   1    -0.09   0.30   0.02     0.05  -0.07  -0.07     0.04   0.39  -0.34
   5   6     0.41  -0.27  -0.01    -0.01  -0.00  -0.14    -0.23   0.11   0.03
   6   1     0.12  -0.29  -0.04    -0.01  -0.02   0.01    -0.07   0.12   0.02
   7   1     0.32  -0.01   0.03     0.02   0.00  -0.12    -0.15   0.01   0.01
   8   6     0.15   0.01   0.01    -0.25   0.28  -0.10     0.02  -0.07   0.05
   9   1     0.05   0.05  -0.04    -0.07   0.21  -0.02     0.00  -0.09   0.06
  10   1    -0.01  -0.01   0.05    -0.20   0.05  -0.03     0.08  -0.00  -0.01
  11   6     0.08   0.12  -0.02     0.11   0.07  -0.13     0.11  -0.00  -0.02
  12   1     0.08   0.01   0.00     0.15  -0.05  -0.04     0.07  -0.00   0.01
  13   1     0.02   0.12  -0.03     0.03   0.06  -0.16     0.03   0.02  -0.04
  14   6    -0.30  -0.02   0.04    -0.04  -0.05   0.41     0.01  -0.04  -0.05
  15   1    -0.19   0.02  -0.02    -0.26   0.02   0.02     0.05   0.01   0.03
  16   1    -0.09  -0.10   0.07    -0.02  -0.08   0.41     0.00  -0.03  -0.09
  17   1    -0.07   0.03  -0.01     0.22  -0.01   0.04    -0.07  -0.02   0.02
                      4                      5                      6
                        a                      a                      a 
 Frequencies --   213.8526               282.8069               330.9677
 Red. masses --    99.0000                99.0000                99.0000
 Frc consts  --    99.0000                99.0000                99.0000
 IR Inten    --    99.0000                99.0000                99.0000
 Raman Activ --     0.0000                 0.0000                 0.0000
 Depolar     --     0.0000                 0.0000                 0.0000
 Atom AN      X      Y      Z        X      Y      Z        X      Y      Z
   1   6     0.12   0.25  -0.04    -0.14  -0.12   0.12     0.03   0.01  -0.41
   2   1     0.04   0.07  -0.08    -0.12  -0.06   0.16     0.01  -0.00  -0.21
   3   1     0.08   0.15   0.05    -0.03  -0.18  -0.03     0.07   0.10  -0.04
   4   1     0.04   0.08  -0.07    -0.04   0.04   0.07     0.01   0.02  -0.19
   5   6    -0.09  -0.08   0.22     0.12   0.23  -0.18    -0.13  -0.30  -0.11
   6   1    -0.03  -0.01   0.10     0.04   0.12  -0.11    -0.04  -0.05  -0.05
   7   1    -0.03  -0.02   0.10    -0.03   0.04  -0.07    -0.06  -0.09   0.01
   8   6    -0.12  -0.21   0.14     0.32   0.05  -0.18     0.12  -0.23   0.07
   9   1    -0.03  -0.07   0.05     0.08  -0.12  -0.11     0.03  -0.22   0.01
  10   1    -0.02  -0.06   0.04     0.21   0.05  -0.07     0.19  -0.03   0.12
  11   6     0.00  -0.03  -0.00    -0.31  -0.11   0.16    -0.17   0.21   0.05
  12   1     0.04   0.05   0.05    -0.29  -0.03  -0.03    -0.08   0.06   0.01
  13   1     0.00  -0.01  -0.05    -0.09  -0.12   0.24    -0.05   0.04   0.06
  14   6     0.04   0.01  -0.29     0.05   0.01   0.06     0.08   0.29   0.36
  15   1    -0.31  -0.13  -0.35    -0.13  -0.10  -0.14     0.04   0.12   0.14
  16   1    -0.00  -0.04   0.32     0.01   0.06   0.26     0.02   0.17   0.15
  17   1     0.36   0.20  -0.28     0.26   0.08  -0.10     0.09  -0.02   0.13
                      7                      8                      9
                        a                      a                      a 
 Frequencies --   470.4087               776.0570               807.7570
 Red. masses --    99.0000                99.0000                99.0000
 Frc consts  --    99.0000                99.0000                99.0000
 IR Inten    --    99.0000                99.0000                99.0000
 Raman Activ --     0.0000                 0.0000                 0.0000
 Depolar     --     0.0000                 0.0000                 0.0000
 Atom AN      X      Y      Z        X      Y      Z        X      Y      Z
   1   6     0.02   0.06   0.35    -0.03  -0.00  -0.05     0.03  -0.03  -0.08
   2   1    -0.01   0.01   0.15     0.13   0.05   0.12    -0.12  -0.06  -0.10
   3   1    -0.04  -0.05   0.05     0.04  -0.05  -0.02    -0.09  -0.03  -0.08
   4   1    -0.00   0.02   0.17     0.01  -0.16  -0.12    -0.01   0.13   0.14
   5   6     0.11   0.07   0.18    -0.11   0.16  -0.05     0.21   0.03  -0.08
   6   1     0.03   0.01   0.09    -0.02  -0.41   0.05     0.05   0.28  -0.02
   7   1     0.03   0.02   0.11     0.40   0.18  -0.08    -0.20  -0.08  -0.06
   8   6    -0.10  -0.32  -0.22    -0.14   0.13   0.04    -0.06  -0.08   0.03
   9   1    -0.03  -0.23  -0.13    -0.05  -0.36   0.06    -0.01   0.03  -0.13
  10   1     0.12  -0.05  -0.03     0.35   0.13  -0.08    -0.07  -0.04   0.02
  11   6    -0.17   0.08  -0.49    -0.07  -0.03   0.14    -0.17  -0.09   0.23
  12   1     0.09   0.03  -0.09     0.20  -0.09   0.07     0.40  -0.14   0.15
  13   1    -0.05   0.06  -0.26    -0.02   0.10  -0.17    -0.04   0.28  -0.29
  14   6     0.05   0.12   0.08     0.02  -0.07   0.02    -0.07   0.02   0.07
  15   1     0.03   0.15   0.12     0.10  -0.17  -0.07     0.21  -0.26  -0.09
  16   1     0.02   0.13   0.09     0.01   0.07  -0.06    -0.00   0.29  -0.07
  17   1     0.10  -0.16   0.08     0.01   0.09  -0.04     0.06   0.13  -0.06
                     10                     11                     12
                        a                      a                      a 
 Frequencies --  1511.3063               887.0720              1507.6340
 Red. masses --    99.0000                99.0000                99.0000
 Frc consts  --    99.0000                99.0000                99.0000
 IR Inten    --    99.0000                99.0000                99.0000
 Raman Activ --     0.0000                 0.0000                 0.0000
 Depolar     --     0.0000                 0.0000                 0.0000
 Atom AN      X      Y      Z        X      Y      Z        X      Y      Z
   1   6    -0.00  -0.02   0.01    -0.09   0.11  -0.08     0.01  -0.01  -0.01
   2   1     0.07   0.02   0.03     0.18   0.11   0.34    -0.01  -0.00   0.05
   3   1    -0.06   0.00  -0.03     0.04  -0.20  -0.11    -0.04   0.05   0.00
   4   1     0.00   0.09  -0.05    -0.01  -0.24  -0.16     0.00   0.02  -0.03
   5   6     0.00  -0.01   0.02    -0.02   0.15  -0.08     0.06   0.08  -0.01
   6   1     0.00   0.01  -0.01     0.01  -0.13  -0.20     0.00  -0.24   0.02
   7   1     0.00  -0.01  -0.05     0.12   0.10   0.27    -0.24  -0.08  -0.01
   8   6    -0.00  -0.01   0.00     0.09  -0.39  -0.05    -0.05  -0.07   0.00
   9   1     0.00   0.04   0.02     0.04   0.25  -0.01     0.01   0.20  -0.00
  10   1     0.03   0.01  -0.00    -0.32  -0.19  -0.07     0.19   0.05  -0.00
  11   6    -0.06  -0.01  -0.04     0.07  -0.09   0.12     0.02  -0.01   0.08
  12   1     0.08  -0.01   0.02     0.06   0.01   0.08    -0.10  -0.02  -0.04
  13   1    -0.01  -0.01   0.07     0.02   0.09   0.06    -0.00   0.05  -0.10
  14   6    -0.19  -0.06  -0.05    -0.09   0.20   0.03    -0.04  -0.04   0.18
  15   1     0.47   0.23   0.42     0.02   0.04   0.01    -0.31   0.17   0.00
  16   1    -0.03  -0.34   0.07    -0.02   0.14   0.03     0.02   0.03  -0.61
  17   1     0.35   0.37  -0.28     0.02   0.05  -0.00     0.44  -0.06  -0.11
                     13                     14                     15
                        a                      a                      a 
 Frequencies --   902.7503              1006.7885              1494.6889
 Red. masses --    99.0000                99.0000                99.0000
 Frc consts  --    99.0000                99.0000                99.0000
 IR Inten    --    99.0000                99.0000                99.0000
 Raman Activ --     0.0000                 0.0000                 0.0000
 Depolar     --     0.0000                 0.0000                 0.0000
 Atom AN      X      Y      Z        X      Y      Z        X      Y      Z
   1   6     0.09   0.00  -0.19    -0.15   0.04   0.00    -0.02  -0.02  -0.01
   2   1    -0.10  -0.04   0.04     0.12   0.07   0.12     0.09   0.03  -0.00
   3   1    -0.18  -0.20  -0.24     0.11   0.00   0.06     0.01  -0.02  -0.00
   4   1    -0.00   0.08   0.24    -0.02  -0.16  -0.22    -0.00   0.09   0.02
   5   6     0.15   0.16  -0.12     0.15  -0.03  -0.00     0.12   0.17  -0.02
   6   1     0.03   0.08   0.16     0.05   0.11  -0.31     0.01  -0.50   0.05
   7   1     0.01   0.03  -0.05    -0.10  -0.04   0.18    -0.48  -0.15  -0.02
   8   6    -0.33  -0.24  -0.01    -0.02   0.09   0.09    -0.03  -0.05   0.04
   9   1    -0.09  -0.21  -0.00    -0.00  -0.03  -0.38     0.01   0.16  -0.03
  10   1     0.05  -0.03  -0.03     0.04   0.04   0.32     0.15   0.04  -0.02
  11   6     0.16  -0.01   0.18    -0.21   0.14   0.03     0.07  -0.07   0.05
  12   1    -0.03   0.14   0.12     0.07   0.11   0.10    -0.27   0.06  -0.06
  13   1     0.04  -0.24  -0.01    -0.06  -0.16  -0.28     0.00   0.16  -0.22
  14   6     0.10   0.19   0.08     0.21  -0.16   0.02     0.01   0.03  -0.09
  15   1    -0.17   0.14   0.00    -0.08  -0.00  -0.03     0.18  -0.09   0.01
  16   1     0.01  -0.30  -0.04     0.04  -0.32  -0.06    -0.01  -0.04   0.32
  17   1    -0.19   0.20   0.03    -0.12   0.08   0.01    -0.22   0.04   0.06
                     16                     17                     18
                        a                      a                      a 
 Frequencies --  1185.4307               965.9509              1045.0960
 Red. masses --    99.0000                99.0000                99.0000
 Frc consts  --    99.0000                99.0000                99.0000
 IR Inten    --    99.0000                99.0000                99.0000
 Raman Activ --     0.0000                 0.0000                 0.0000
 Depolar     --     0.0000                 0.0000                 0.0000
 Atom AN      X      Y      Z        X      Y      Z        X      Y      Z
   1   6     0.18  -0.04  -0.03    -0.02  -0.00   0.29    -0.10  -0.20   0.08
   2   1    -0.10  -0.06  -0.07     0.03   0.00  -0.11    -0.02  -0.06  -0.26
   3   1    -0.09  -0.01  -0.07     0.13   0.22   0.25     0.11   0.22   0.21
   4   1     0.03   0.13   0.19     0.01   0.02  -0.10    -0.01   0.02  -0.18
   5   6    -0.31   0.05   0.04    -0.11  -0.16   0.01     0.10   0.21  -0.01
   6   1    -0.08  -0.19   0.07    -0.03  -0.05  -0.05     0.03   0.01  -0.11
   7   1     0.13   0.08  -0.03    -0.04  -0.05  -0.06     0.07   0.05  -0.20
   8   6     0.39  -0.04   0.05     0.01  -0.05  -0.40    -0.02  -0.07   0.07
   9   1     0.10   0.23   0.07     0.00  -0.02  -0.17    -0.00  -0.00  -0.07
  10   1    -0.14  -0.07  -0.12    -0.00  -0.02  -0.19    -0.02  -0.03  -0.25
  11   6    -0.40  -0.00  -0.05     0.15  -0.13   0.09    -0.03  -0.20   0.20
  12   1     0.11   0.01   0.07     0.03  -0.15  -0.06     0.14   0.20   0.28
  13   1    -0.10   0.09  -0.22     0.04  -0.10  -0.01    -0.01  -0.04  -0.12
  14   6     0.24   0.01   0.04    -0.00   0.31   0.23    -0.02   0.14  -0.21
  15   1    -0.11   0.05  -0.03    -0.03  -0.09  -0.10    -0.11   0.33   0.14
  16   1     0.05  -0.29  -0.05    -0.00  -0.08  -0.11    -0.01  -0.00   0.12
  17   1    -0.13   0.11   0.03    -0.18   0.43  -0.03     0.05  -0.28   0.06
                     19                     20                     21
                        a                      a                      a 
 Frequencies --  1491.8744              1497.5266              1155.3330
 Red. masses --    99.0000                99.0000                99.0000
 Frc consts  --    99.0000                99.0000                99.0000
 IR Inten    --    99.0000                99.0000                99.0000
 Raman Activ --     0.0000                 0.0000                 0.0000
 Depolar     --     0.0000                 0.0000                 0.0000
 Atom AN      X      Y      Z        X      Y      Z        X      Y      Z
   1   6     0.00   0.02  -0.01     0.01   0.03   0.01     0.07   0.14  -0.08
   2   1    -0.05  -0.02  -0.00    -0.09  -0.03  -0.01    -0.00   0.03   0.18
   3   1     0.06   0.01   0.03     0.03   0.01   0.02    -0.07  -0.14  -0.14
   4   1    -0.00  -0.06   0.06     0.00  -0.11   0.02     0.01  -0.02   0.13
   5   6    -0.01  -0.01  -0.02    -0.09  -0.12  -0.03    -0.18  -0.34   0.17
   6   1    -0.00  -0.01   0.01    -0.01   0.36   0.01    -0.05  -0.03   0.15
   7   1    -0.01  -0.00   0.03     0.34   0.11   0.03    -0.11  -0.09   0.21
   8   6    -0.15  -0.16   0.01    -0.09  -0.12   0.00     0.07   0.29  -0.33
   9   1     0.02   0.52  -0.02     0.01   0.33  -0.00     0.02  -0.04  -0.28
  10   1     0.51   0.13  -0.02     0.32   0.08   0.02     0.10   0.09  -0.11
  11   6    -0.10   0.08  -0.11     0.11  -0.10   0.12     0.05  -0.10   0.31
  12   1     0.38  -0.08   0.09    -0.42   0.08  -0.10     0.12  -0.01   0.13
  13   1    -0.00  -0.23   0.33     0.00   0.26  -0.36     0.01   0.05  -0.03
  14   6     0.02   0.01  -0.04    -0.02   0.04  -0.01    -0.01   0.06  -0.20
  15   1     0.01  -0.04  -0.04     0.08  -0.04   0.01    -0.05   0.22   0.09
  16   1    -0.00   0.03   0.10    -0.00  -0.08   0.04    -0.01   0.01   0.10
  17   1    -0.11  -0.02   0.04     0.02  -0.01   0.00     0.05  -0.20   0.03
                     22                     23                     24
                        a                      a                      a 
 Frequencies --  1090.9470              1242.2817              1131.2436
 Red. masses --    99.0000                99.0000                99.0000
 Frc consts  --    99.0000                99.0000                99.0000
 IR Inten    --    99.0000                99.0000                99.0000
 Raman Activ --     0.0000                 0.0000                 0.0000
 Depolar     --     0.0000                 0.0000                 0.0000
 Atom AN      X      Y      Z        X      Y      Z        X      Y      Z
   1   6     0.19   0.29   0.36    -0.24   0.17  -0.01     0.08   0.16   0.05
   2   1     0.04   0.07   0.14     0.15   0.12   0.19     0.03   0.05   0.12
   3   1     0.02   0.05   0.07     0.10  -0.07   0.01    -0.01  -0.05  -0.04
   4   1     0.04   0.10   0.17    -0.04  -0.19  -0.18     0.02   0.01   0.08
   5   6    -0.13  -0.21  -0.54     0.27  -0.19  -0.00    -0.01  -0.14  -0.18
   6   1    -0.03  -0.08  -0.21     0.05   0.19   0.26     0.00   0.01  -0.17
   7   1    -0.01  -0.06  -0.25    -0.13  -0.13  -0.26    -0.03  -0.05  -0.06
   8   6    -0.11  -0.13  -0.02    -0.01   0.02   0.00     0.09   0.19   0.34
   9   1    -0.03  -0.04   0.05    -0.01  -0.01   0.36     0.02  -0.02   0.16
  10   1    -0.04  -0.04   0.06     0.01   0.00  -0.26     0.07   0.06   0.16
  11   6    -0.01   0.18   0.16    -0.21  -0.04  -0.02    -0.02  -0.48  -0.17
  12   1     0.01   0.15   0.12     0.06  -0.11  -0.03     0.04  -0.20  -0.08
  13   1    -0.00   0.10   0.07    -0.05   0.28   0.06    -0.01  -0.31  -0.24
  14   6     0.05  -0.15  -0.05     0.19   0.04  -0.02    -0.13   0.33  -0.04
  15   1     0.01   0.00   0.03    -0.10   0.09  -0.02    -0.06   0.15   0.03
  16   1     0.01  -0.03   0.03     0.04  -0.19  -0.02    -0.04   0.10   0.03
  17   1     0.04  -0.13   0.02    -0.09   0.02   0.04    -0.03   0.03   0.01
                     25                     26                     27
                        a                      a                      a 
 Frequencies --  1417.2415              1266.2874              1287.9693
 Red. masses --    99.0000                99.0000                99.0000
 Frc consts  --    99.0000                99.0000                99.0000
 IR Inten    --    99.0000                99.0000                99.0000
 Raman Activ --     0.0000                 0.0000                 0.0000
 Depolar     --     0.0000                 0.0000                 0.0000
 Atom AN      X      Y      Z        X      Y      Z        X      Y      Z
   1   6     0.10   0.17   0.31     0.05  -0.13   0.05    -0.11   0.05   0.00
   2   1    -0.17  -0.07  -0.40    -0.04  -0.05  -0.12     0.05   0.04   0.05
   3   1    -0.21  -0.31  -0.23    -0.00   0.08   0.06     0.02   0.01   0.02
   4   1     0.04  -0.21  -0.39     0.01   0.09   0.02    -0.02  -0.05  -0.08
   5   6     0.01   0.01  -0.06     0.02   0.14  -0.13    -0.09   0.11  -0.05
   6   1    -0.00  -0.06   0.06     0.01  -0.03  -0.14    -0.04  -0.02   0.50
   7   1    -0.06  -0.01   0.08     0.02   0.07   0.30     0.09   0.03  -0.44
   8   6     0.01   0.03  -0.01    -0.16  -0.02  -0.07     0.13  -0.13   0.01
   9   1     0.00  -0.01   0.02    -0.05  -0.08   0.08     0.04   0.08  -0.39
  10   1    -0.00   0.01   0.03     0.01   0.02   0.31    -0.09  -0.05   0.48
  11   6    -0.01  -0.05  -0.03    -0.05  -0.09   0.13     0.06  -0.03   0.05
  12   1     0.04   0.04   0.05     0.06  -0.46  -0.24     0.03  -0.15  -0.08
  13   1     0.00   0.01   0.05    -0.01   0.38   0.20     0.02  -0.01   0.03
  14   6    -0.07   0.21   0.03     0.17   0.09  -0.16    -0.02   0.06  -0.05
  15   1     0.13  -0.20  -0.11    -0.11   0.22   0.05    -0.01   0.04   0.01
  16   1    -0.01  -0.26  -0.05     0.03  -0.16   0.05    -0.00   0.01   0.02
  17   1     0.12  -0.21   0.05    -0.05  -0.05   0.02     0.01  -0.06   0.01
                     28                     29                     30
                        a                      a                      a 
 Frequencies --  1311.4615              1505.9131              1508.4720
 Red. masses --    99.0000                99.0000                99.0000
 Frc consts  --    99.0000                99.0000                99.0000
 IR Inten    --    99.0000                99.0000                99.0000
 Raman Activ --     0.0000                 0.0000                 0.0000
 Depolar     --     0.0000                 0.0000                 0.0000
 Atom AN      X      Y      Z        X      Y      Z        X      Y      Z
   1   6     0.09   0.11  -0.06     0.17  -0.13   0.02     0.12   0.13  -0.11
   2   1    -0.05  -0.00   0.02    -0.13  -0.04   0.43    -0.59  -0.19   0.16
   3   1    -0.08  -0.12  -0.13    -0.59   0.39  -0.05     0.11   0.26   0.16
   4   1     0.02  -0.04   0.04     0.04   0.17  -0.45     0.01  -0.59   0.14
   5   6    -0.06  -0.03   0.32     0.03  -0.04   0.00     0.05   0.07  -0.05
   6   1     0.01  -0.03  -0.43     0.01   0.04   0.02     0.01  -0.10   0.04
   7   1     0.02  -0.03  -0.41     0.01  -0.01  -0.01    -0.10  -0.03   0.02
   8   6    -0.10  -0.06   0.27    -0.01  -0.01   0.00     0.02   0.02   0.02
   9   1    -0.02  -0.04  -0.38     0.00   0.03   0.02    -0.00  -0.08  -0.00
  10   1     0.01  -0.01  -0.27     0.03   0.01  -0.02    -0.08  -0.02  -0.01
  11   6     0.06   0.05  -0.05    -0.00   0.01  -0.00    -0.00   0.00  -0.01
  12   1    -0.06  -0.21  -0.19     0.00   0.00   0.00     0.00  -0.00  -0.00
  13   1     0.02   0.18   0.16     0.00  -0.01   0.00    -0.00   0.00   0.01
  14   6     0.05   0.05  -0.02     0.02   0.01  -0.02    -0.02  -0.01  -0.01
  15   1    -0.02   0.01  -0.02    -0.01  -0.04  -0.04     0.07   0.02   0.06
  16   1     0.01  -0.07  -0.00     0.00   0.03   0.06    -0.00  -0.04   0.04
  17   1    -0.01  -0.04   0.02    -0.08  -0.03   0.04     0.02   0.05  -0.03
                     31                     32                     33
                        a                      a                      a 
 Frequencies --  1354.2276              1415.3506              1374.9596
 Red. masses --    99.0000                99.0000                99.0000
 Frc consts  --    99.0000                99.0000                99.0000
 IR Inten    --    99.0000                99.0000                99.0000
 Raman Activ --     0.0000                 0.0000                 0.0000
 Depolar     --     0.0000                 0.0000                 0.0000
 Atom AN      X      Y      Z        X      Y      Z        X      Y      Z
   1   6    -0.02  -0.00   0.01    -0.05  -0.12  -0.19     0.04   0.05  -0.05
   2   1     0.01   0.00  -0.01     0.10   0.04   0.24    -0.06  -0.01  -0.01
   3   1     0.02  -0.00   0.01     0.12   0.19   0.14    -0.04  -0.06  -0.07
   4   1    -0.00  -0.01  -0.01    -0.02   0.13   0.23     0.01  -0.06  -0.00
   5   6     0.03   0.00  -0.01     0.00   0.01   0.04     0.00   0.05   0.39
   6   1     0.01   0.01   0.02     0.00  -0.00  -0.05     0.02  -0.04  -0.34
   7   1    -0.00  -0.00   0.00     0.00   0.00  -0.00    -0.01  -0.03  -0.35
   8   6     0.04  -0.12  -0.02    -0.01   0.03  -0.03     0.00  -0.04  -0.45
   9   1     0.01   0.03   0.14    -0.01  -0.04   0.01    -0.00   0.05   0.40
  10   1    -0.06  -0.05  -0.18    -0.02   0.00   0.05     0.02   0.01   0.42
  11   6    -0.02   0.44   0.31    -0.00  -0.07  -0.05    -0.02  -0.02   0.10
  12   1     0.00  -0.43  -0.29     0.04   0.06   0.06     0.03   0.07   0.09
  13   1    -0.01  -0.43  -0.31     0.00   0.05   0.08    -0.01  -0.06  -0.08
  14   6    -0.07   0.02  -0.12    -0.11   0.35   0.06    -0.00  -0.01  -0.02
  15   1     0.09  -0.03   0.00     0.20  -0.33  -0.19    -0.01   0.02   0.01
  16   1    -0.02  -0.07   0.06    -0.02  -0.43  -0.08    -0.00   0.04   0.03
  17   1     0.09  -0.20   0.02     0.20  -0.36   0.10    -0.03  -0.02   0.01
                     34                     35                     36
                        a                      a                      a 
 Frequencies --  2956.5127              2960.7847              3030.2415
 Red. masses --    99.0000                99.0000                99.0000
 Frc consts  --    99.0000                99.0000                99.0000
 IR Inten    --    99.0000                99.0000                99.0000
 Raman Activ --     0.0000                 0.0000                 0.0000
 Depolar     --     0.0000                 0.0000                 0.0000
 Atom AN      X      Y      Z        X      Y      Z        X      Y      Z
   1   6     0.00   0.00  -0.00     0.00   0.00  -0.00     0.20   0.12  -0.13
   2   1    -0.00   0.01   0.00     0.00   0.00   0.00     0.10  -0.18  -0.01
   3   1    -0.00  -0.00   0.01    -0.00  -0.00   0.01    -0.21  -0.26   0.50
   4   1    -0.02  -0.00  -0.00    -0.02  -0.00  -0.00    -0.59   0.01  -0.05
   5   6    -0.10   0.05  -0.01    -0.05   0.01  -0.00     0.03   0.02  -0.00
   6   1     0.32   0.01   0.01     0.16   0.00   0.01    -0.09   0.00  -0.00
   7   1     0.06  -0.20   0.02     0.01  -0.04   0.00     0.02  -0.05   0.00
   8   6     0.19  -0.18   0.01    -0.03  -0.05  -0.00     0.01   0.00  -0.00
   9   1    -0.55   0.01  -0.01     0.19  -0.02   0.00    -0.06   0.00   0.00
  10   1    -0.16   0.64  -0.01    -0.06   0.20  -0.00     0.01  -0.03   0.00
  11   6    -0.05  -0.00  -0.00     0.21   0.10  -0.15     0.02  -0.00   0.00
  12   1    -0.01  -0.01   0.01    -0.21  -0.39   0.56     0.00   0.00  -0.00
  13   1     0.21   0.00  -0.00    -0.54   0.02  -0.01    -0.05  -0.00   0.00
  14   6    -0.00   0.00  -0.00    -0.02  -0.01   0.01     0.10   0.01   0.06
  15   1    -0.00  -0.00   0.00     0.02   0.04  -0.05     0.03   0.03  -0.02
  16   1     0.00   0.00   0.00     0.06  -0.00   0.00    -0.31   0.01  -0.00
  17   1     0.00   0.00   0.00    -0.01  -0.01  -0.01    -0.06  -0.08  -0.20
                     37                     38                     39
                        a                      a                      a 
 Frequencies --  2968.5517              2989.7491              3027.5371
 Red. masses --    99.0000                99.0000                99.0000
 Frc consts  --    99.0000                99.0000                99.0000
 IR Inten    --    99.0000                99.0000                99.0000
 Raman Activ --     0.0000                 0.0000                 0.0000
 Depolar     --     0.0000                 0.0000                 0.0000
 Atom AN      X      Y      Z        X      Y      Z        X      Y      Z
   1   6    -0.02   0.01   0.00     0.00  -0.04   0.02    -0.20   0.18  -0.03
   2   1     0.02  -0.06   0.00    -0.05   0.13  -0.00     0.22  -0.67   0.04
   3   1     0.00   0.01  -0.01     0.03   0.03  -0.07    -0.05   0.01   0.04
   4   1     0.07   0.00   0.01     0.01  -0.01   0.00     0.52   0.03   0.02
   5   6     0.22  -0.05   0.01     0.00   0.22  -0.02    -0.03   0.03  -0.00
   6   1    -0.77  -0.00  -0.04    -0.31   0.03  -0.02     0.06   0.00   0.00
   7   1    -0.02   0.15  -0.01     0.30  -0.82   0.07     0.04  -0.11   0.01
   8   6     0.01  -0.11   0.00     0.00   0.05  -0.00    -0.00   0.01  -0.00
   9   1     0.12  -0.02   0.00    -0.06   0.01  -0.00     0.00   0.00  -0.00
  10   1    -0.13   0.44  -0.01     0.05  -0.18   0.00     0.01  -0.02   0.00
  11   6    -0.04   0.02  -0.04     0.01   0.01  -0.01     0.01  -0.00   0.00
  12   1    -0.07  -0.10   0.14    -0.02  -0.03   0.05     0.00   0.00  -0.01
  13   1     0.21   0.00  -0.01    -0.01   0.00  -0.00    -0.03  -0.00   0.00
  14   6     0.00   0.00   0.00    -0.01  -0.01   0.02     0.09   0.01   0.05
  15   1     0.00   0.00  -0.00     0.03   0.04  -0.05     0.03   0.03  -0.02
  16   1    -0.00   0.00   0.00     0.00  -0.00   0.00    -0.30   0.01  -0.00
  17   1    -0.00  -0.01  -0.01    -0.01  -0.01  -0.01    -0.05  -0.07  -0.16
                     40                     41                     42
                        a                      a                      a 
 Frequencies --  2976.9568              3029.1794              2979.2188
 Red. masses --    99.0000                99.0000                99.0000
 Frc consts  --    99.0000                99.0000                99.0000
 IR Inten    --    99.0000                99.0000                99.0000
 Raman Activ --     0.0000                 0.0000                 0.0000
 Depolar     --     0.0000                 0.0000                 0.0000
 Atom AN      X      Y      Z        X      Y      Z        X      Y      Z
   1   6     0.02   0.00  -0.00     0.01   0.14  -0.07    -0.02   0.00   0.00
   2   1     0.00   0.00   0.00     0.15  -0.38   0.02     0.01  -0.03   0.00
   3   1    -0.00  -0.01   0.01    -0.11  -0.11   0.24     0.00   0.01  -0.02
   4   1    -0.05  -0.00  -0.00    -0.07   0.02  -0.01     0.06   0.00   0.00
   5   6    -0.05   0.05  -0.01    -0.01   0.03  -0.00     0.09  -0.03   0.01
   6   1     0.11   0.01   0.01    -0.00   0.00  -0.00    -0.30  -0.00  -0.01
   7   1     0.07  -0.20   0.02     0.03  -0.08   0.01    -0.03   0.11  -0.01
   8   6    -0.12  -0.10   0.00    -0.01   0.01  -0.00     0.13  -0.01   0.00
   9   1     0.60  -0.06   0.01     0.03   0.00   0.00    -0.47   0.03  -0.01
  10   1    -0.14   0.44  -0.01     0.01  -0.04   0.00     0.01   0.01   0.00
  11   6     0.02  -0.07   0.10    -0.03   0.00  -0.00     0.16  -0.05   0.07
  12   1     0.17   0.27  -0.39    -0.01  -0.01   0.01     0.13   0.18  -0.26
  13   1    -0.24  -0.01   0.02     0.09   0.00  -0.00    -0.69  -0.01   0.03
  14   6     0.00   0.00  -0.01    -0.22  -0.03  -0.08    -0.03  -0.01  -0.02
  15   1    -0.01  -0.02   0.03    -0.02   0.02  -0.04    -0.01  -0.01   0.01
  16   1    -0.00  -0.00  -0.00     0.73  -0.02   0.01     0.10  -0.00   0.00
  17   1     0.01   0.01   0.03     0.08   0.12   0.30     0.02   0.02   0.05
                     43                     44                     45
                        a                      a                      a 
 Frequencies --  3032.5784              3035.5580              3045.0537
 Red. masses --    99.0000                99.0000                99.0000
 Frc consts  --    99.0000                99.0000                99.0000
 IR Inten    --    99.0000                99.0000                99.0000
 Raman Activ --     0.0000                 0.0000                 0.0000
 Depolar     --     0.0000                 0.0000                 0.0000
 Atom AN      X      Y      Z        X      Y      Z        X      Y      Z
   1   6    -0.00  -0.02   0.02    -0.03  -0.03  -0.15     0.00  -0.01   0.01
   2   1    -0.01   0.03   0.00    -0.16   0.42  -0.04    -0.01   0.03  -0.00
   3   1     0.04   0.04  -0.08    -0.26  -0.31   0.56     0.01   0.01  -0.02
   4   1    -0.01  -0.00   0.00     0.54   0.00   0.01    -0.00  -0.00   0.00
   5   6    -0.00  -0.01   0.00    -0.00  -0.00  -0.01     0.00  -0.01   0.00
   6   1     0.02  -0.00   0.00     0.01  -0.00  -0.00     0.01  -0.00   0.00
   7   1    -0.01   0.04  -0.00    -0.00   0.00  -0.00    -0.02   0.06  -0.00
   8   6    -0.00  -0.00  -0.00    -0.00  -0.00   0.00     0.00  -0.01   0.00
   9   1     0.01  -0.00   0.00     0.01  -0.00  -0.00     0.00  -0.00   0.00
  10   1    -0.00   0.01   0.00    -0.00   0.01  -0.00    -0.01   0.02  -0.00
  11   6    -0.01  -0.01   0.02    -0.00  -0.00   0.00    -0.01  -0.01   0.02
  12   1     0.02   0.04  -0.06     0.00   0.00  -0.01     0.02   0.03  -0.05
  13   1     0.01   0.00   0.00     0.00   0.00   0.00     0.01  -0.00   0.00
  14   6    -0.07   0.03   0.24    -0.01   0.00   0.01    -0.07  -0.16   0.12
  15   1     0.10   0.17  -0.18     0.01   0.01  -0.01     0.34   0.52  -0.68
  16   1     0.43  -0.00   0.05     0.04  -0.00   0.00    -0.15  -0.02   0.01
  17   1    -0.27  -0.29  -0.71    -0.01  -0.01  -0.03     0.07   0.07   0.26
