 
        ______________________________________
       |                                      |
       |           ==================         |
       |                 x T B                |
       |           ==================         |
       |               S. Grimme              |
       |        Universitaet Bonn, MCTC       |
       |         2015-18, Version 5.8.1       |
       |      Sun May  6 11:39:08 CEST 2018   |
       |______________________________________|
 
        This code comes without any warranty
        for non-commercial, academia use only.
        Preliminary GFN2 test version.
        Test license to: Dow Chemical Company
        Cite GFN-xTB work as:
        S. Grimme, C. Bannwarth, P. Shushkov
        JCTC, 13 (2017) 1989-2009
        for GFN2:
        C. Bannwarth, S. Ehlert, S. Grimme
        to be published.
        sTDA-xTB:
        S. Grimme  &  C. Bannwarth, JCP 145 (2016) 054103
        in the mass-spec context additionally:
        V. Asgeirsson, C.Bauer, S. Grimme, Chem. Sci. 8 (2017) 4879
 
        with help from
        P. Shushkov, G. Brandenburg, S. Dohm, J. Pisarek,
        F. März, M. Checinski, S. Ehrlich, S. Spicher, 
        P. Pracht, E. Caldeweyher, S. Ehlert, and C. Bannwarth.
 
        usage        :
        xtb <coord_file> [options]
        where <coord_file> is a valid file of TM)
        (*coord, Bohr) or xmol (*xyz, Angstroem)
        format.

        options:
        -chrg <int>   : molecular charge
        -uhf  <int>   : # of unpaired electrons(=2*S)
        -nox          : skip second, extended part in sTDA-xTB
        -pop          : do population analysis
                      : (default for -nox)
        -mowr <real>  : cut MO write above (def.3 Eh)
        -molden       : write formatted molden file
        -parx <file>  : read parameters for sTDA-xTB
                        calc (def:~/.param_stda2.xtb)
        -parv <file>  : read parameters for vTB part in
                        sTDA-xTB (def: ~/.param_stda1.xtb)
        -xtemp <real> : el. temp for xTB (def. 0 K)
        -etemp <real> : el. temp for GFN (def. 300 K)
        -fod          : calculate the FOD and write
                        molden.input file with
                        appropriate occupations
                        for plotting. Def. T=12500 K
 
        -gfn1         : use GFN-xTB
        -gfn2         : use GFN2-xTB
        -gfn2d3       : GFN2-xTB with D3 instead of D4
        -grad         : GFNn-xTB gradient
        -acc <real>   : GFNn-xTB accuracy (def. 1.0)
        -opt [level]  : optimize at GFNn-xTB
                      : level=crude,vloose,loose,
                      :       tight,vtight
        -hess         : compute Hessian at GFNn-xTB
        -ohess        : optimize and compute Hessian
        -omd          : optimize and do MD
        -siman        : conformational search
        -screen       : opt. loop over ensemble
        -gmd          : annealed MD for GMD procedure
        -modef        : vib mode following
        -gbsa [string1] [string2]
                        use GBSA implicit solvent
                        for solvent [string1] and
                        solvation state [string2]=
                        reference, bar1M (default=1M)
        additional GFN/opt/MD/siman options read from
        $XTBHOME/.xtbrc or $set in coordinate file
 
       spin and charge state information can be on:
       <.CHRG> (charge) and <.UHF> (=nalpha-nbeta)
       -uhf and -chrg override the file info.
       useful machine settings:
       setenv MKL_NUM_THREADS <NCORE_ON_YOUR_MACHINE>
       setenv OMP_STACKSIZE 500m
       limit stacksize unlimited
 
       total energies in Eh, gaps/HL energies in eV
       please read REVISION and HOWTO files carefully
          72  days left until this code expires
 =============================
  # OMP threads =           2
 =============================
 
 xtbhome directory:/home/ua25450/dftb/
 
 argument            1 :-ohess
 
 name of molecule           :
 comment line               :
 number of atoms            :    18
 number of electrons        :    38
 charge                     :  0
 spin                       : 0.0
 first test random number   :  0.8490
 
 
 -----------------------------------------
  G F N (Geometry, Frequency, Non-covalent)
        parametrization, gfnver=           3
     D4 dispersion model
 /home/ua25450/dftb/.param_gfn2.xtb
 -----------------------------------------
      method parameters     
 k(s)        :  1.8500
 k(p)        :  2.2300
 k(d)        :  2.2300
 k(f)        :  2.0000
 kEN (H0ij)  : -2.0000
 D3 a1       :  0.5200
 D3 a2       :  5.0000
 D3 s8       :  2.7000
 D3atm       :  5.0000
 alphaj      :  2.0000
 
     -------------------------
     ! NO SOLVENT MODEL USED !
     -------------------------
 
 doing EN charges ...
 sum q : -0.1776357D-14
 point charge moment (au)
     X       Y       Z   
  -0.1487   0.0579  -0.2096  total (Debye):    0.670
 
            Z     q(EN)     CN     RAES       Cart. coordinates
     1  C   4.0   -0.13    4.02    3.65    -4.68056    -0.64180    -0.12667
     2  H   1.0    0.04    1.00    1.43    -3.99408    -2.57865    -0.12075
     3  H   1.0    0.04    1.00    1.43    -4.01015     0.27877    -1.83824
     4  H   1.0    0.04    1.00    1.43    -6.73534    -0.68209    -0.17848
     5  C   4.0   -0.09    4.06    3.73    -3.75672     0.76943     2.20736
     6  H   1.0    0.04    1.01    1.43    -1.69339     0.75890     2.24403
     7  H   1.0    0.04    1.01    1.43    -4.41644    -0.20326     3.90369
     8  C   4.0   -0.09    4.12    3.84    -4.69407     3.49799     2.25134
     9  H   1.0    0.04    1.01    1.43    -6.75887     3.50945     2.21659
    10  H   1.0    0.04    1.01    1.43    -4.03706     4.47128     0.55258
    11  C   4.0   -0.09    4.10    3.81    -3.76889     4.91547     4.58393
    12  H   1.0    0.05    1.01    1.43    -1.70763     4.93374     4.63321
    13  H   1.0    0.05    1.01    1.43    -4.42579     3.97216     6.29571
    14  C   4.0   -0.03    4.04    3.70    -4.70244     7.64118     4.63398
    15  H   1.0    0.04    1.00    1.43    -6.78158     7.67136     4.62176
    16  H   1.0    0.04    1.00    1.43    -4.03303     8.64359     2.93960
    17  O   6.0   -0.17    2.03    1.83    -3.76704     8.81402     6.84023
    18  H   1.0    0.11    1.02    1.43    -4.34433    10.53774     6.89293
 
  Z AO/shell   Hii/eV     exponent
  1     Wed Apr 25 08:07:45 CEST 2018   EN: 2.200 GM2: 0.406  GM3: 0.0800  RAES: 1.40
     1s    -10.707211    1.230000
  6     Wed Apr 25 08:07:45 CEST 2018   EN: 2.550 GM2: 0.538  GM3: 0.1500  RAES: 3.00
     2s    -13.970922    2.096432
     2p    -10.063292    1.800000
  8     Wed Apr 25 08:07:45 CEST 2018   EN: 3.440 GM2: 0.452  GM3:-0.0517  RAES: 1.80
     2s    -20.229985    2.439742
     2p    -15.503117    2.137023
 
Refinement of some symmetry elements was terminated before convergence was reached.
Some symmetry elements may remain unidentified.
Molecule has the following symmetry elements: (sigma) 
It seems to be the Cs point group
cs  symmetry found (for desy threshold:  0.10E+00) used in thermo
 no old-style atom pair restraing (fixing) potential
 
             =======================================
             |                                     |
             |        S C C  calculation           |
             |                                     |
             =======================================
 #proc     :            2
 Ncao      :           36
 Nao       :           36
 Nel       :           38
 T(el)     :   300.0
 intcut    :    25.0
 scfconv   :  0.100E-05
   qconv   :  0.100E-03
 intneglect:  0.100E-07
 broydamp  :      0.400
 Nshell    :           24
  q data taken from xtbrestart
  CAMM data taken from xtbrestart
 iter      E             dE          RMSdq      gap      omega  full diag
   1    -21.1460360 -0.211460E+02  0.159E-06   11.99       0.0  T
   2    -21.1460360  0.284217E-13  0.981E-07   11.99   24020.8  T
   3    -21.1460360 -0.177636E-13  0.313E-07   11.99   75268.2  T
speedup  1.00
cpu  time for SCC    0.01 s
wall time for SCC    0.01 s

          eigenvalues
 #    :           7          8          9         10         11         12         13         14
 occ. :        2.000      2.000      2.000      2.000      2.000      2.000      2.000      2.000
 eps  :       -14.976    -14.531    -13.900    -13.876    -13.300    -12.926    -12.921    -12.211
 #    :          15         16         17         18         19         20         21         22
 occ. :        2.000      2.000      2.000      2.000      2.000      0.000      0.000      0.000
 eps  :       -11.961    -11.919    -11.684    -11.496    -11.075      0.920      2.556      3.100
 #    :          23         24         25         26         27         28         29         30
 occ. :        0.000      0.000      0.000      0.000      0.000      0.000      0.000      0.000
 eps  :         3.177      3.571      3.946      4.407      4.483      4.634      5.075      5.785
 

   #   Z            q   n(s)   n(p)   n(d)      C6AA      α(0)    relVol
   1   6 C     -0.103  1.037  3.067  0.000    22.670     6.810     0.551
   2   1 H      0.035  0.965  0.000  0.000     2.514     2.479     0.491
   3   1 H      0.034  0.966  0.000  0.000     2.524     2.484     0.492
   4   1 H      0.034  0.966  0.000  0.000     2.524     2.484     0.492
   5   6 C     -0.054  1.048  3.006  0.000    21.623     6.632     0.537
   6   1 H      0.032  0.968  0.000  0.000     2.549     2.496     0.494
   7   1 H      0.032  0.968  0.000  0.000     2.549     2.496     0.494
   8   6 C     -0.062  1.052  3.009  0.000    21.733     6.642     0.538
   9   1 H      0.031  0.969  0.000  0.000     2.566     2.505     0.496
  10   1 H      0.031  0.969  0.000  0.000     2.566     2.505     0.496
  11   6 C     -0.065  1.051  3.014  0.000    21.811     6.656     0.539
  12   1 H      0.048  0.952  0.000  0.000     2.336     2.390     0.473
  13   1 H      0.048  0.952  0.000  0.000     2.337     2.390     0.473
  14   6 C      0.089  1.035  2.876  0.000    19.444     6.342     0.513
  15   1 H      0.013  0.987  0.000  0.000     2.834     2.633     0.521
  16   1 H      0.013  0.987  0.000  0.000     2.834     2.633     0.521
  17   8 O     -0.443  1.708  4.735  0.000    22.207     6.376     1.227
  18   1 H      0.284  0.716  0.000  0.000     0.709     1.322     0.262

 Mol. C6AA /au*bohr^6 :       2133.987860
 Mol. C8AA /au*bohr^6 :      43833.106771
 Mol. a(0) /au        :         68.275616

 
 Wiberg/Mayer (AO) data. WBOs > 0.1 written file <wbo>
 largest (>0.05) Wiberg bond orders for each atom
           total WBO             WBO to atom ...
     1  C   3.997    C    5 1.019    H    3 0.988    H    4 0.988    H    2 0.987
     2  H   0.998    C    1 0.987
     3  H   0.999    C    1 0.988
     4  H   0.999    C    1 0.988
     5  C   3.997    C    1 1.019    C    8 1.008    H    7 0.978    H    6 0.978
     6  H   0.999    C    5 0.978
     7  H   0.999    C    5 0.978
     8  C   3.997    C    5 1.008    C   11 1.007    H    9 0.977    H   10 0.977
     9  H   0.999    C    8 0.977
    10  H   0.999    C    8 0.977
    11  C   3.994    C    8 1.007    C   14 1.004    H   13 0.976    H   12 0.976
    12  H   0.998    C   11 0.976
    13  H   0.998    C   11 0.976
    14  C   3.957    C   11 1.004    O   17 0.994    H   16 0.972    H   15 0.972
    15  H   1.000    C   14 0.972
    16  H   1.000    C   14 0.972
    17  O   1.950    C   14 0.994    H   18 0.905
    18  H   0.919    O   17 0.905
 
molecular dipole:
                 x           y           z       tot (Debye)
 q only:       -0.246       0.075      -0.359
   full:        0.674       0.275      -0.476       1.712
molecular quadrupole (traceless):
                xx          xy          yy          xz          yz          zz
 q only:        1.955      -4.064       4.984      -0.143      -2.194      -6.938
  q+dip:        3.608      -7.029       7.722      -1.934      -3.470     -11.330
   full:        2.830      -7.152       8.258      -1.344      -2.677     -11.088
 SCC converged in            3  cycles
 
SCC energy    :     -21.1460360
rep           :       0.2611090
ES            :       0.0269655
AES           :       0.0053229
AXC           :       0.0076033
disp          :      -0.0090758
XB            :       0.0000000
fix           :       0.0000000
total E       :     -20.8849406
atomizationE  :       4.2829638     2687.60
(atE without considerung molecular charge,
 total energy contains solvation terms)
H-L gap (eV)  :         11.9945
 
             =======================================
             |                                     |
             |    Approximate Normal Coordinate    |
             |   Rational Function Optimization    |
             |                                     |
             =======================================
Ref. for RF algo: F.Eckert, P.Pulay, H.-J.Werner
                  J.Comput.Chem. 18 (1997) 1473.
ANC idea implemented by S. Grimme in the 2000ers (unpublished)
restraining potential by S. Ehrlich.
dumping coords to <xtbopt.coord> and <xtbopt.log
 optlevel               1
 Maxcycle             200
 Maxmicro              20
 Econv         1.000000000000000E-006
 Gconv         8.000000000000000E-004
 Maxdispl       1.00000000000000     
 Hlow          1.000000000000000E-002
 S6             20.0000000000000     
 Nvar               48

generating ANC from read Hessian ...
 Shifting diagonal of input Hessian by   9.493965890616123E-003
 Lowest  eigenvalues of input Hessian
   -0.000000   -0.000000   -0.000000   -0.000000    0.000000    0.000000
    0.010000    0.010163    0.010966    0.011895    0.011972    0.015344
    0.021012    0.026659    0.037792    0.039695    0.040941    0.045654
 Highest eigenvalues
    0.762611    0.771444    0.803179    0.807713    0.832841    0.969619
 
cpu  time for ANC gen    0.01 s
wall time for ANC gen    0.01 s
................................................................................
.............................. CYCLE    1 ......................................
................................................................................
  q data taken from xtbrestart
  CAMM data taken from xtbrestart
   1    -21.1460360 -0.211460E+02  0.155E-07   11.99       0.0  T
   2    -21.1460360 -0.248690E-13  0.924E-08   11.99  100000.0  T
   3    -21.1460360  0.319744E-13  0.380E-08   11.99  100000.0  T
speedup  1.00
cpu  time for SCC    0.00 s
wall time for SCC    0.00 s
speedup  1.00
cpu  time for grad    0.00 s
wall time for grad    0.00 s
 E :    -20.88494059  G :  0.000217    pred/act E change:  0.000D+00 -0.620D-10
Maxdispl :   0.0006   ||displ|| :   0.0012   Lambda : -0.112D-06
Largest |displ|/coords:  0.0006 (   4)  0.0005 (  10)  0.0005 (  16)
ancopt converged in          1 cycles
total energy gain (kcal):      0.0000
================
 final structure:
================
    18
        -20.88494059
C          -2.47684849337654   -0.33962841073409   -0.06702947039091
H          -2.11357498240960   -1.36456538267815   -0.06389717103575
H          -2.12208003425912    0.14751784558469   -0.97275576270816
H          -3.56419071382534   -0.36094763253754   -0.09444988116790
C          -1.98797130449993    0.40716277443721    1.16808629391722
H          -0.89610567081647    0.40159466507146    1.18749143412015
H          -2.33707736965850   -0.10755808631328    2.06574417822213
C          -2.48399287330811    1.85105829037883    1.19135553690415
H          -3.57664167643026    1.85712193046907    1.17296963734702
H          -2.13632182929405    2.36610170218137    0.29241240739169
C          -1.99440892652055    2.60115346091550    2.42571408537109
H          -0.90363645415704    2.61082082194100    2.45178757577096
H          -2.34202787646770    2.10197730418329    3.33154867860285
C          -2.48842209270807    4.04353761677050    2.45219734656818
H          -3.58865745212336    4.05950753257569    2.44573006297750
H          -2.13418516693685    4.57399371506260    1.55557057441113
O          -1.99343285080015    4.66418045350414    3.61969447395483
H          -2.29891873240837    5.57633150918771    3.64758219974384
 
 Bond Distances (Angstroems)
 ---------------------------
C1-H2=1.0874         C1-H3=1.0879         C1-H4=1.0879         C1-C5=1.5239         H2-C1=1.0874         H3-C1=1.0879         
H4-C1=1.0879         C5-C1=1.5239         C5-H6=1.0921         C5-H7=1.0921         C5-C8=1.5269         H6-C5=1.0921         
H7-C5=1.0921         C8-C5=1.5269         C8-H9=1.0928         C8-H10=1.0928        C8-C11=1.5251        H9-C8=1.0928         
H10-C8=1.0928        C11-C8=1.5251        C11-H12=1.0911       C11-H13=1.0911       C11-C14=1.5249       H12-C11=1.0911       
H13-C11=1.0911       C14-C11=1.5249       C14-H15=1.1004       C14-H16=1.1004       C14-O17=1.4118       H15-C14=1.1004       
H16-C14=1.1004       O17-C14=1.4118       O17-H18=0.9624       H18-O17=0.9624       
 C  H  Rav=1.0924 sigma=0.0042  Rmin=1.0874  Rmax=1.1004    11
 C  C  Rav=1.5252 sigma=0.0011  Rmin=1.5239  Rmax=1.5269     4
 O  H  Rav=0.9624 sigma=0.0000  Rmin=0.9624  Rmax=0.9624     1
 O  C  Rav=1.4118 sigma=0.0000  Rmin=1.4118  Rmax=1.4118     1
 
 selected bond angles (degree)
 --------------------
H3-C1-H2=108.39                H4-C1-H2=108.39                H4-C1-H3=108.28                C5-C1-H2=110.63                
C5-C1-H3=110.53                C5-C1-H4=110.53                H6-C5-C1=109.43                H7-C5-C1=109.43                
H7-C5-H6=107.61                C8-C5-C1=111.81                C8-C5-H6=109.23                C8-C5-H7=109.23                
H9-C8-C5=109.26                H10-C8-C5=109.26               H10-C8-H9=107.56               C11-C8-C5=111.91               
C11-C8-H9=109.38               C11-C8-H10=109.38              
 
 selected dihedral angles (degree)
 ---------------------------------
H6-C5-C1-H2= 58.88            H6-C5-C1-H3=298.81            H6-C5-C1-H4=178.95            H7-C5-C1-H2=301.19            
H7-C5-C1-H3=181.12            H7-C5-C1-H4= 61.26            C8-C5-C1-H2=180.04            C8-C5-C1-H3= 59.97            
C8-C5-C1-H4=300.10            H9-C8-C5-C1= 58.79            H9-C8-C5-H6=180.06            H9-C8-C5-H7=297.51            
H10-C8-C5-C1=301.37           H10-C8-C5-H6= 62.64           H10-C8-C5-H7=180.10           C11-C8-C5-C1=180.08           
C11-C8-C5-H6=301.35           C11-C8-C5-H7= 58.81           
 
             =======================================
             |                                     |
             |        S C C  calculation           |
             |                                     |
             =======================================
 #proc     :            2
 Ncao      :           36
 Nao       :           36
 Nel       :           38
 T(el)     :   300.0
 intcut    :    25.0
 scfconv   :  0.100E-05
   qconv   :  0.100E-03
 intneglect:  0.100E-07
 broydamp  :      0.400
 Nshell    :           24
 iter      E             dE          RMSdq      gap      omega  full diag
   1    -21.1460360 -0.211460E+02  0.363E-08   11.99       0.0  T
   2    -21.1460360  0.319744E-13  0.220E-08   11.99  100000.0  T
   3    -21.1460360  0.177636E-13  0.215E-09   11.99  100000.0  T
speedup  1.00
cpu  time for SCC    0.00 s
wall time for SCC    0.00 s

          eigenvalues
 #    :           7          8          9         10         11         12         13         14
 occ. :        2.000      2.000      2.000      2.000      2.000      2.000      2.000      2.000
 eps  :       -14.976    -14.531    -13.900    -13.876    -13.300    -12.926    -12.921    -12.211
 #    :          15         16         17         18         19         20         21         22
 occ. :        2.000      2.000      2.000      2.000      2.000      0.000      0.000      0.000
 eps  :       -11.961    -11.919    -11.684    -11.496    -11.075      0.920      2.556      3.100
 #    :          23         24         25         26         27         28         29         30
 occ. :        0.000      0.000      0.000      0.000      0.000      0.000      0.000      0.000
 eps  :         3.177      3.571      3.946      4.407      4.483      4.634      5.075      5.785
 

   #   Z            q   n(s)   n(p)   n(d)      C6AA      α(0)    relVol
   1   6 C     -0.103  1.037  3.067  0.000    22.670     6.810     0.551
   2   1 H      0.035  0.965  0.000  0.000     2.514     2.479     0.491
   3   1 H      0.034  0.966  0.000  0.000     2.524     2.484     0.492
   4   1 H      0.034  0.966  0.000  0.000     2.524     2.484     0.492
   5   6 C     -0.054  1.048  3.006  0.000    21.623     6.632     0.537
   6   1 H      0.032  0.968  0.000  0.000     2.549     2.496     0.494
   7   1 H      0.032  0.968  0.000  0.000     2.549     2.496     0.494
   8   6 C     -0.062  1.052  3.009  0.000    21.733     6.642     0.538
   9   1 H      0.031  0.969  0.000  0.000     2.566     2.505     0.496
  10   1 H      0.031  0.969  0.000  0.000     2.566     2.505     0.496
  11   6 C     -0.065  1.051  3.014  0.000    21.811     6.656     0.539
  12   1 H      0.048  0.952  0.000  0.000     2.336     2.390     0.473
  13   1 H      0.048  0.952  0.000  0.000     2.337     2.390     0.473
  14   6 C      0.089  1.035  2.876  0.000    19.444     6.342     0.513
  15   1 H      0.013  0.987  0.000  0.000     2.834     2.633     0.521
  16   1 H      0.013  0.987  0.000  0.000     2.834     2.633     0.521
  17   8 O     -0.443  1.708  4.735  0.000    22.207     6.376     1.227
  18   1 H      0.284  0.716  0.000  0.000     0.709     1.322     0.262

 Mol. C6AA /au*bohr^6 :       2133.987859
 Mol. C8AA /au*bohr^6 :      43833.106745
 Mol. a(0) /au        :         68.275616

 
 Wiberg/Mayer (AO) data. WBOs > 0.1 written file <wbo>
 largest (>0.05) Wiberg bond orders for each atom
           total WBO             WBO to atom ...
     1  C   3.997    C    5 1.019    H    3 0.988    H    4 0.988    H    2 0.987
     2  H   0.998    C    1 0.987
     3  H   0.999    C    1 0.988
     4  H   0.999    C    1 0.988
     5  C   3.997    C    1 1.019    C    8 1.008    H    7 0.978    H    6 0.978
     6  H   0.999    C    5 0.978
     7  H   0.999    C    5 0.978
     8  C   3.997    C    5 1.008    C   11 1.007    H    9 0.977    H   10 0.977
     9  H   0.999    C    8 0.977
    10  H   0.999    C    8 0.977
    11  C   3.994    C    8 1.007    C   14 1.004    H   13 0.976    H   12 0.976
    12  H   0.998    C   11 0.976
    13  H   0.998    C   11 0.976
    14  C   3.957    C   11 1.004    O   17 0.994    H   16 0.972    H   15 0.972
    15  H   1.000    C   14 0.972
    16  H   1.000    C   14 0.972
    17  O   1.950    C   14 0.994    H   18 0.905
    18  H   0.919    O   17 0.905
 
molecular dipole:
                 x           y           z       tot (Debye)
 q only:       -0.246       0.075      -0.359
   full:       -0.389       0.275      -0.476       1.712
molecular quadrupole (traceless):
                xx          xy          yy          xz          yz          zz
 q only:        1.955      -4.064       4.984      -0.143      -2.194      -6.938
  q+dip:        3.608      -7.029       7.722      -1.934      -3.470     -11.330
   full:        2.830      -7.152       8.258      -1.344      -2.677     -11.088
 SCC converged in            3  cycles
 
SCC energy    :     -21.1460360
rep           :       0.2611090
ES            :       0.0269655
AES           :       0.0053229
AXC           :       0.0076033
disp          :      -0.0090758
XB            :       0.0000000
fix           :       0.0000000
total E       :     -20.8849406
atomizationE  :       4.2829638     2687.60
(atE without considerung molecular charge,
 total energy contains solvation terms)
H-L gap (eV)  :         11.9945
 !!!!!!!!!!!!!!!!!!!!!!!!!!!!!!!!!!!
 ! Note: the input coordinates are !
 ! NOT overwritten. The optimized  !
 ! ones are on file <xtbopt.coord> !
 ! (or on <xtbopt.xyz> if it was a !
 ! xyz file)                       !
 !!!!!!!!!!!!!!!!!!!!!!!!!!!!!!!!!!!
 
Refinement of some symmetry elements was terminated before convergence was reached.
Some symmetry elements may remain unidentified.
Molecule has the following symmetry elements: (sigma) 
It seems to be the Cs point group
cs  symmetry found (for desy threshold:  0.10E+00) used in thermo
  q data taken from xtbrestart
  CAMM data taken from xtbrestart
 
             =======================================
             |                                     |
             |         Numerical Hessian           |
             |                                     |
             =======================================
step length          :   0.00500
SCC accuracy         :   0.30000
Hessian scale factor :   1.00000
frozen atoms in %    :   0.00000    0
RMS gradient         :   0.00022
estimated CPU  time      0.02 min
estimated wall time      0.02 min
 
 writing file <hessian>.
 
 projected vibrational frequencies (cm-1)
eig.   :       -0.00    -0.00    -0.00     0.00     0.00     0.00
eig.   :       66.56    96.45   130.71   137.21   233.35   290.40
eig.   :      310.54   365.43   478.46   772.61   803.69   880.33
eig.   :      941.42   977.33  1017.53  1076.92  1090.71  1107.03
eig.   :     1130.75  1162.71  1211.30  1212.73  1263.01  1270.37
eig.   :     1270.99  1289.98  1327.67  1372.28  1383.55  1416.05
eig.   :     1492.83  1494.50  1498.21  1500.91  1504.57  1507.55
eig.   :     2849.21  2882.83  2957.76  2973.64  2975.24  2985.28
eig.   :     2989.71  3000.81  3030.38  3033.42  3038.94  3564.39
 reduced masses (amu)
   1:  7.72   2: 10.89   3: 11.76   4: 10.15   5:  9.23   6: 12.04   7: 10.25   8:  5.90
   9:  7.77  10: 10.15  11:  2.09  12:  2.13  13: 10.56  14: 10.10  15:  9.94  16:  1.67
  17:  2.18  18:  2.63  19:  6.12  20:  2.25  21:  8.81  22: 11.85  23:  8.96  24:  7.88
  25:  8.03  26:  5.16  27:  3.61  28:  5.01  29:  3.12  30:  1.47  31:  3.83  32:  2.12
  33:  4.22  34:  5.07  35:  5.03  36:  3.18  37:  1.93  38:  1.84  39:  1.98  40:  1.78
  41:  1.53  42:  1.64  43:  1.97  44:  1.42  45:  1.93  46:  2.00  47:  1.45  48:  1.49
  49:  2.02  50:  1.50  51:  1.96  52:  1.84  53:  1.36  54:  1.88
 IR intensities (amu)
   1:  0.27   2:  0.15   3:  0.25   4:  0.08   5:  0.17   6:  0.05   7:  0.44   8:  0.16
   9:  0.20  10:  0.21  11:  0.03  12:  0.49  13:  0.23  14:  0.14  15:  0.28  16:  0.02
  17:  0.09  18:  0.09  19:  0.16  20:  0.12  21:  0.15  22:  0.85  23:  0.70  24:  0.07
  25:  0.41  26:  0.29  27:  0.25  28:  0.13  29:  0.04  30:  0.01  31:  0.35  32:  0.02
  33:  0.22  34:  0.12  35:  0.25  36:  0.05  37:  0.06  38:  0.09  39:  0.08  40:  0.05
  41:  0.03  42:  0.02  43:  0.39  44:  0.31  45:  0.11  46:  0.25  47:  0.14  48:  0.20
  49:  0.36  50:  0.28  51:  0.29  52:  0.27  53:  0.18  54:  0.14
 output can be read by thermo (or use thermo option).
 writing <g98.out> molden fake output.
 recommended (thermochemical) frequency scaling factor: 1.0
                    ==================
                    thermo calculation
                    ==================
Nvib :   48 Nimag : 0  symmetry :   cs  rot number :  1  scale factor : 1.00 sthr :  50.
omega= 66.56     Gvib=    -1.268     Grot=    -0.972     Gused=    -1.196
omega= 96.45     Gvib=    -1.051     Grot=    -0.862     Gused=    -1.038
omega=130.71     Gvib=    -0.875     Grot=    -0.772     Gused=    -0.873
omega=137.21     Gvib=    -0.848     Grot=    -0.757     Gused=    -0.846
omega=233.35     Gvib=    -0.552     Grot=    -0.600     Gused=    -0.553
omega=290.40     Gvib=    -0.439     Grot=    -0.535     Gused=    -0.439
 
   temp. (K)  partition function   enthalpy   heat capacity  entropy
                                   cal/mol     cal/K/mol   cal/K/mol   J/K/mol
 298.15  VIB   167.                 3405.524     22.118     21.303
         ROT  0.193E+06              888.752      2.981     27.165
         INT  0.323E+08             4294.276     25.099     48.468
         TR   0.801E+27             1481.254      4.968     39.324
         TOT                        5775.5302    30.0674    87.7917   367.3193
                     Eh         kcal/mol          kJ/mol 
ZPVE            0.162589         102.026         426.875    
H(0)-H(T)+PV    0.920389E-02     5.77553         24.1647    
H(T)            0.171793         107.802         451.040    
T*S             0.417127E-01     26.1751         109.516    
G(T)            0.130080         81.6265         341.524    
    -20.75486051  <=== TOTAL FREE ENERGY in Eh incl. el.,ZPVE,RRHO,solv. parts
 
Eat (element increment corrected) /kcal :  1950.560
        -303.526  <=== HOF(298)/kcal, to be compared to exptl. data
 
 normal mode %tage of torsion character
   1:  0.00   2:  0.00   3:  0.00   4:  0.00   5:  0.00   6:  0.00   7:  0.66   8:  0.62
   9:  0.73  10:  0.11  11:  0.83  12:  0.97  13:  0.07  14:  0.08  15:  0.06  16:  0.49
  17:  0.42  18:  0.54  19:  0.03  20:  0.51  21:  0.09  22:  0.11  23:  0.07  24:  0.07
  25:  0.02  26:  0.77  27:  0.05  28:  0.53  29:  0.31  30:  0.11  31:  0.03  32:  0.09
  33:  0.05  34:  0.05  35:  0.03  36:  0.44  37:  0.64  38:  0.59  39:  0.62  40:  0.58
  41:  0.26  42:  0.32  43:  0.10  44:  0.00  45:  0.32  46:  0.20  47:  0.01  48:  0.01
  49:  0.11  50:  0.01  51:  0.21  52:  0.02  53:  0.00  54:  0.00
 recommended # of modes for mode following           4
 
speedup  0.98
cpu  time for all    1.03 s
wall time for all    1.04 s
