 Entering Gaussian System
 *********************************************
 Gaussian 98:
 frequency output generated by the xtb code
 *********************************************
                         Standard orientation:
 --------------------------------------------------------------------
  Center     Atomic     Atomic              Coordinates (Angstroms)
  Number     Number      Type              X           Y           Z
 --------------------------------------------------------------------
    1          6             0       -2.476850   -0.339616   -0.067020
    2          1             0       -2.113582   -1.364554   -0.063887
    3          1             0       -2.122083    0.147527   -0.972749
    4          1             0       -3.564193   -0.360929   -0.094437
    5          6             0       -1.987965    0.407175    1.168092
    6          1             0       -0.896099    0.401601    1.187494
    7          1             0       -2.337071   -0.107542    2.065752
    8          6             0       -2.483979    1.851073    1.191361
    9          1             0       -3.576628    1.857143    1.172979
   10          1             0       -2.136308    2.366113    0.292416
   11          6             0       -1.994387    2.601168    2.425716
   12          1             0       -0.903614    2.610830    2.451786
   13          1             0       -2.342005    2.101995    3.331553
   14          6             0       -2.488392    4.043555    2.452199
   15          1             0       -3.588628    4.059531    2.445735
   16          1             0       -2.134156    4.574008    1.555570
   17          8             0       -1.993396    4.664197    3.619693
   18          1             0       -2.298877    5.576350    3.647580
 --------------------------------------------------------------------
     1 basis functions        1 primitive gaussians
     1 alpha electrons        1 beta electrons
 
 Harmonic frequencies (cm**-1), IR intensities (KM/Mole),
 Raman scattering activities (A**4/amu), Raman depolarization ratios,
 reduced masses (AMU), force constants (mDyne/A) and normal coordinates:
                      1                      2                      3
                        a                      a                      a 
 Frequencies --    66.5601                96.4546               130.7106
 Red. masses --    10.2533                 5.8982                 7.7660
 Frc consts  --     0.0000                 0.0000                 0.0000
 IR Inten    --     0.4437                 0.1628                 0.2047
 Raman Activ --     0.0000                 0.0000                 0.0000
 Depolar     --     0.0000                 0.0000                 0.0000
 Atom AN      X      Y      Z        X      Y      Z        X      Y      Z
   1   6     0.35   0.12  -0.21     0.03   0.01  -0.02    -0.19  -0.07   0.11
   2   1     0.11   0.04  -0.07     0.15   0.05  -0.10    -0.05  -0.02   0.03
   3   1     0.20   0.08  -0.00    -0.18   0.09  -0.03    -0.15  -0.05  -0.02
   4   1     0.10   0.03  -0.18     0.01  -0.15   0.14    -0.06  -0.02   0.14
   5   6    -0.14  -0.05   0.09     0.23   0.08  -0.14     0.21   0.08  -0.13
   6   1    -0.04   0.01   0.13     0.07   0.14  -0.16     0.06  -0.01  -0.11
   7   1    -0.12  -0.06  -0.03     0.22  -0.03  -0.01     0.10   0.07   0.01
   8   6    -0.24  -0.08   0.14    -0.26  -0.09   0.16     0.35   0.12  -0.21
   9   1    -0.07  -0.04   0.04    -0.08  -0.13   0.09     0.10   0.07  -0.24
  10   1    -0.08  -0.01   0.05    -0.16   0.04   0.05     0.26   0.06   0.02
  11   6    -0.25  -0.09   0.15    -0.31  -0.11   0.19    -0.31  -0.11   0.19
  12   1    -0.07  -0.03   0.04    -0.09  -0.16   0.14    -0.09  -0.04   0.23
  13   1    -0.07  -0.02   0.05    -0.21   0.05   0.05    -0.24  -0.08  -0.03
  14   6    -0.19  -0.07   0.12     0.28   0.10  -0.17    -0.23  -0.08   0.14
  15   1    -0.06  -0.00   0.18     0.08   0.16  -0.20    -0.07  -0.00   0.13
  16   1    -0.16  -0.07  -0.04     0.27  -0.04  -0.01    -0.13  -0.07  -0.01
  17   8     0.44   0.16  -0.27    -0.02  -0.01   0.01     0.20   0.07  -0.12
  18   1     0.12   0.04  -0.07     0.12   0.04  -0.07     0.05   0.02  -0.03
                      4                      5                      6
                        a                      a                      a 
 Frequencies --   137.2052               233.3532               290.4043
 Red. masses --    10.1463                 2.0935                 2.1331
 Frc consts  --     0.0000                 0.0000                 0.0000
 IR Inten    --     0.2101                 0.0316                 0.4856
 Raman Activ --     0.0000                 0.0000                 0.0000
 Depolar     --     0.0000                 0.0000                 0.0000
 Atom AN      X      Y      Z        X      Y      Z        X      Y      Z
   1   6    -0.23   0.29  -0.20    -0.04  -0.01   0.02     0.00  -0.00  -0.00
   2   1    -0.13   0.06  -0.17    -0.46  -0.16   0.28     0.01   0.00  -0.01
   3   1    -0.07   0.15  -0.02     0.37  -0.34  -0.02    -0.01   0.01   0.00
   4   1    -0.07   0.15  -0.03    -0.02   0.46  -0.19     0.00  -0.02   0.01
   5   6     0.05  -0.18  -0.02     0.22   0.08  -0.13    -0.01  -0.00   0.00
   6   1     0.01  -0.10  -0.04     0.06   0.07  -0.13    -0.00  -0.01   0.01
   7   1     0.01  -0.10  -0.04     0.16   0.01  -0.01    -0.01   0.01   0.00
   8   6     0.22  -0.14   0.28    -0.11  -0.04   0.06     0.03   0.01  -0.02
   9   1     0.06  -0.02   0.09    -0.03  -0.09   0.09     0.01   0.01   0.00
  10   1     0.06  -0.02   0.09    -0.12   0.04   0.01     0.01  -0.00  -0.01
  11   6     0.22  -0.13   0.28    -0.07  -0.02   0.04     0.07   0.02  -0.04
  12   1     0.06  -0.02   0.09    -0.02  -0.02   0.01     0.02   0.05  -0.05
  13   1     0.06  -0.02   0.09    -0.03   0.00   0.02     0.07  -0.01  -0.01
  14   6     0.04  -0.18  -0.04     0.00   0.00  -0.00    -0.09  -0.03   0.06
  15   1     0.01  -0.11  -0.05     0.00   0.02  -0.01    -0.03  -0.02   0.02
  16   1     0.01  -0.11  -0.05     0.02  -0.01  -0.00    -0.04  -0.00   0.02
  17   8    -0.25   0.32  -0.22    -0.01  -0.00   0.00    -0.20  -0.07   0.12
  18   1    -0.11   0.07  -0.15     0.04   0.02  -0.03     0.78   0.27  -0.48
                      7                      8                      9
                        a                      a                      a 
 Frequencies --   310.5405               365.4329               478.4648
 Red. masses --    10.5633                10.0957                 9.9410
 Frc consts  --     0.0000                 0.0000                 0.0000
 IR Inten    --     0.2261                 0.1415                 0.2808
 Raman Activ --     0.0000                 0.0000                 0.0000
 Depolar     --     0.0000                 0.0000                 0.0000
 Atom AN      X      Y      Z        X      Y      Z        X      Y      Z
   1   6     0.07  -0.42  -0.13     0.07   0.20   0.23     0.01   0.23   0.14
   2   1     0.10  -0.09   0.11     0.05   0.07   0.12    -0.07   0.04  -0.09
   3   1     0.03  -0.21  -0.08     0.02   0.03   0.05    -0.01   0.15   0.08
   4   1     0.02  -0.21  -0.08     0.02   0.03   0.05    -0.00   0.15   0.08
   5   6    -0.20   0.07  -0.29    -0.09   0.41   0.09     0.15  -0.08   0.19
   6   1    -0.06   0.03  -0.07    -0.03   0.16   0.05     0.04   0.01   0.06
   7   1    -0.05   0.04  -0.07    -0.02   0.16   0.05     0.03   0.00   0.07
   8   6    -0.09   0.14  -0.07    -0.14   0.29  -0.05    -0.15  -0.19  -0.35
   9   1    -0.03   0.08   0.01    -0.04   0.12   0.01    -0.04  -0.11  -0.13
  10   1    -0.03   0.08   0.01    -0.03   0.12   0.01    -0.04  -0.11  -0.13
  11   6     0.13  -0.14   0.13     0.14  -0.28   0.07    -0.12  -0.23  -0.32
  12   1     0.04  -0.08   0.01     0.04  -0.11  -0.01    -0.03  -0.15  -0.13
  13   1     0.03  -0.08   0.01     0.03  -0.11  -0.00    -0.03  -0.15  -0.13
  14   6     0.18  -0.08   0.24     0.09  -0.40  -0.09     0.16  -0.11   0.21
  15   1     0.05  -0.06   0.05     0.02  -0.15  -0.05     0.05  -0.02   0.06
  16   1     0.05  -0.06   0.05     0.02  -0.16  -0.05     0.04  -0.03   0.06
  17   8    -0.09   0.49   0.14    -0.07  -0.21  -0.25    -0.02   0.37   0.19
  18   1    -0.10   0.10  -0.09    -0.05  -0.06  -0.11    -0.07   0.07  -0.08
                     10                     11                     12
                        a                      a                      a 
 Frequencies --   772.6090               803.6900               880.3317
 Red. masses --     1.6721                 2.1766                 2.6298
 Frc consts  --     0.0000                 0.0000                 0.0000
 IR Inten    --     0.0220                 0.0869                 0.0917
 Raman Activ --     0.0000                 0.0000                 0.0000
 Depolar     --     0.0000                 0.0000                 0.0000
 Atom AN      X      Y      Z        X      Y      Z        X      Y      Z
   1   6     0.01   0.00  -0.01    -0.04  -0.01   0.03     0.10   0.04  -0.06
   2   1    -0.03  -0.01   0.02     0.08   0.03  -0.05    -0.10  -0.04   0.06
   3   1    -0.10  -0.06  -0.07     0.16   0.12   0.14    -0.18  -0.16  -0.18
   4   1    -0.00   0.02   0.14    -0.00  -0.06  -0.24     0.01   0.10   0.29
   5   6     0.11   0.04  -0.06    -0.17  -0.06   0.10     0.10   0.03  -0.06
   6   1     0.02  -0.22   0.28    -0.03   0.15  -0.32     0.02   0.10   0.22
   7   1    -0.32   0.11  -0.09     0.32  -0.04   0.15    -0.12  -0.14  -0.16
   8   6     0.14   0.05  -0.08    -0.01  -0.00   0.00    -0.21  -0.07   0.13
   9   1     0.02  -0.22   0.38    -0.00   0.14   0.07    -0.05   0.10  -0.26
  10   1    -0.41   0.09  -0.15     0.01  -0.13  -0.07     0.25  -0.03   0.14
  11   6     0.10   0.03  -0.06     0.17   0.06  -0.10     0.03   0.01  -0.02
  12   1     0.01  -0.11   0.32     0.04  -0.23   0.30     0.01  -0.26  -0.07
  13   1    -0.31   0.00  -0.14    -0.34   0.12  -0.12    -0.06   0.24   0.10
  14   6     0.02   0.01  -0.01     0.09   0.03  -0.06     0.18   0.06  -0.11
  15   1     0.00  -0.11   0.07     0.02  -0.25   0.16     0.03  -0.27   0.19
  16   1    -0.11   0.07  -0.00    -0.24   0.17  -0.02    -0.27   0.19  -0.04
  17   8    -0.01  -0.00   0.01    -0.04  -0.02   0.03    -0.06  -0.02   0.03
  18   1     0.01   0.00  -0.01     0.02   0.01  -0.01     0.01   0.00  -0.01
                     13                     14                     15
                        a                      a                      a 
 Frequencies --   941.4174               977.3296              1017.5314
 Red. masses --     6.1235                 2.2538                 8.8101
 Frc consts  --     0.0000                 0.0000                 0.0000
 IR Inten    --     0.1604                 0.1189                 0.1477
 Raman Activ --     0.0000                 0.0000                 0.0000
 Depolar     --     0.0000                 0.0000                 0.0000
 Atom AN      X      Y      Z        X      Y      Z        X      Y      Z
   1   6    -0.06   0.36   0.12    -0.13  -0.05   0.08    -0.09  -0.02  -0.15
   2   1     0.24   0.18   0.50     0.09   0.03  -0.06     0.04   0.01   0.07
   3   1     0.03  -0.20  -0.10     0.16   0.14   0.18    -0.01  -0.09  -0.08
   4   1    -0.00  -0.21  -0.08    -0.02  -0.10  -0.26    -0.02  -0.09  -0.07
   5   6    -0.16   0.19  -0.16     0.10   0.03  -0.06     0.09   0.01   0.15
   6   1    -0.04  -0.07  -0.11     0.02  -0.32  -0.06     0.02  -0.06   0.01
   7   1    -0.04  -0.07  -0.11    -0.09   0.29   0.10     0.03  -0.06   0.00
   8   6     0.20  -0.35   0.13     0.05   0.02  -0.03     0.06   0.14   0.18
   9   1     0.05  -0.14   0.01     0.01  -0.32  -0.13     0.02  -0.04   0.00
  10   1     0.05  -0.14   0.01    -0.04   0.31   0.15     0.01  -0.04   0.00
  11   6    -0.05  -0.10  -0.14    -0.14  -0.05   0.09    -0.29   0.43  -0.22
  12   1    -0.01  -0.01  -0.02    -0.03  -0.17  -0.25    -0.07   0.11  -0.06
  13   1    -0.01  -0.01  -0.02     0.12   0.20   0.20    -0.07   0.11  -0.06
  14   6    -0.04   0.01  -0.06     0.15   0.05  -0.09     0.28  -0.33   0.26
  15   1    -0.01   0.03   0.00     0.03  -0.16   0.13     0.07  -0.07   0.06
  16   1    -0.01   0.03   0.00    -0.17   0.11  -0.04     0.06  -0.07   0.06
  17   8     0.03   0.06   0.08    -0.04  -0.01   0.02    -0.01  -0.11  -0.08
  18   1     0.00   0.01   0.01     0.00   0.00  -0.00    -0.20  -0.08  -0.37
                     16                     17                     18
                        a                      a                      a 
 Frequencies --  1076.9184              1090.7114              1107.0300
 Red. masses --    11.8460                 8.9633                 7.8806
 Frc consts  --     0.0000                 0.0000                 0.0000
 IR Inten    --     0.8489                 0.7039                 0.0652
 Raman Activ --     0.0000                 0.0000                 0.0000
 Depolar     --     0.0000                 0.0000                 0.0000
 Atom AN      X      Y      Z        X      Y      Z        X      Y      Z
   1   6    -0.08  -0.15  -0.22    -0.17  -0.04  -0.29    -0.15  -0.04  -0.27
   2   1    -0.04  -0.05  -0.10     0.04   0.02   0.08     0.02   0.01   0.03
   3   1    -0.03  -0.03  -0.06    -0.03  -0.14  -0.14    -0.03  -0.10  -0.12
   4   1    -0.02  -0.02  -0.06    -0.04  -0.14  -0.13    -0.04  -0.10  -0.12
   5   6     0.06   0.20   0.22     0.18   0.09   0.35     0.08   0.26   0.28
   6   1     0.02   0.09   0.09     0.05  -0.03   0.07     0.02   0.16   0.12
   7   1     0.02   0.09   0.08     0.05  -0.02   0.07     0.01   0.16   0.12
   8   6     0.13   0.08   0.27     0.03   0.15   0.14    -0.10  -0.28  -0.33
   9   1     0.04   0.05   0.09     0.01  -0.02   0.02    -0.03  -0.21  -0.16
  10   1     0.04   0.05   0.09     0.02  -0.01   0.02    -0.02  -0.21  -0.16
  11   6    -0.10  -0.16  -0.26     0.03  -0.25  -0.10     0.14   0.17   0.33
  12   1    -0.03  -0.00  -0.06     0.01  -0.25  -0.13     0.04   0.13   0.15
  13   1    -0.04  -0.01  -0.05     0.01  -0.25  -0.13     0.04   0.14   0.14
  14   6    -0.19  -0.25  -0.45     0.03   0.34   0.24    -0.00  -0.07  -0.04
  15   1    -0.03  -0.02  -0.06    -0.00   0.06   0.02     0.00  -0.07  -0.03
  16   1    -0.03  -0.01  -0.06    -0.01   0.06   0.02     0.01  -0.07  -0.03
  17   8     0.17   0.20   0.40    -0.14  -0.08  -0.28     0.02   0.00   0.04
  18   1     0.00   0.04   0.03     0.10   0.02   0.18     0.02   0.01   0.04
                     19                     20                     21
                        a                      a                      a 
 Frequencies --  1130.7488              1162.7102              1211.2988
 Red. masses --     8.0265                 5.1647                 3.6104
 Frc consts  --     0.0000                 0.0000                 0.0000
 IR Inten    --     0.4115                 0.2943                 0.2538
 Raman Activ --     0.0000                 0.0000                 0.0000
 Depolar     --     0.0000                 0.0000                 0.0000
 Atom AN      X      Y      Z        X      Y      Z        X      Y      Z
   1   6    -0.07   0.19  -0.00     0.06   0.02  -0.04    -0.06   0.07  -0.06
   2   1     0.11   0.09   0.24    -0.03  -0.01   0.02     0.04   0.04   0.09
   3   1     0.03  -0.14  -0.08    -0.05  -0.04  -0.06     0.01  -0.07  -0.05
   4   1    -0.01  -0.15  -0.06     0.01   0.03   0.08    -0.01  -0.07  -0.03
   5   6     0.21  -0.38   0.12    -0.12  -0.04   0.07     0.10  -0.12   0.10
   6   1     0.06  -0.27  -0.07    -0.03   0.09  -0.05     0.02   0.02   0.04
   7   1     0.05  -0.27  -0.07     0.08  -0.08   0.02     0.02   0.02   0.05
   8   6    -0.24   0.39  -0.17     0.17   0.06  -0.10    -0.09   0.01  -0.15
   9   1    -0.06   0.06  -0.07     0.04   0.04   0.18    -0.02   0.16   0.07
  10   1    -0.06   0.06  -0.07    -0.11  -0.07  -0.13    -0.02   0.16   0.06
  11   6     0.06   0.10   0.15    -0.25  -0.09   0.15     0.12  -0.29   0.04
  12   1     0.01  -0.02  -0.01    -0.06   0.24  -0.09     0.03   0.11   0.11
  13   1     0.00  -0.03   0.00     0.17  -0.20   0.02     0.03   0.11   0.11
  14   6    -0.08  -0.14  -0.21     0.34   0.12  -0.21    -0.10   0.14  -0.07
  15   1    -0.01  -0.11  -0.08     0.08   0.08   0.42    -0.02   0.32   0.13
  16   1    -0.01  -0.10  -0.08    -0.28  -0.15  -0.30    -0.03   0.32   0.15
  17   8     0.06   0.08   0.15    -0.13  -0.05   0.08     0.08  -0.09   0.07
  18   1     0.07   0.04   0.14    -0.01  -0.00   0.01    -0.29  -0.11  -0.54
                     22                     23                     24
                        a                      a                      a 
 Frequencies --  1212.7341              1263.0059              1270.3749
 Red. masses --     5.0113                 3.1196                 1.4714
 Frc consts  --     0.0000                 0.0000                 0.0000
 IR Inten    --     0.1313                 0.0415                 0.0075
 Raman Activ --     0.0000                 0.0000                 0.0000
 Depolar     --     0.0000                 0.0000                 0.0000
 Atom AN      X      Y      Z        X      Y      Z        X      Y      Z
   1   6     0.24   0.08  -0.14    -0.18  -0.06   0.11    -0.02  -0.00   0.01
   2   1    -0.10  -0.04   0.06     0.07   0.02  -0.04     0.03   0.01  -0.01
   3   1    -0.16  -0.13  -0.19     0.11   0.08   0.14     0.02   0.00   0.01
   4   1     0.04   0.09   0.26    -0.04  -0.05  -0.18    -0.00  -0.00  -0.02
   5   6    -0.33  -0.11   0.20     0.09   0.03  -0.06     0.11   0.04  -0.07
   6   1    -0.07   0.03  -0.24     0.02   0.33   0.25     0.03  -0.13   0.00
   7   1     0.19   0.01   0.17    -0.04  -0.34  -0.24    -0.05   0.13   0.02
   8   6     0.25   0.09  -0.15     0.19   0.07  -0.12     0.05   0.01  -0.03
   9   1     0.05  -0.17   0.11     0.04   0.10   0.20     0.01   0.35   0.23
  10   1    -0.15   0.13  -0.05    -0.10  -0.12  -0.17    -0.02  -0.34  -0.22
  11   6    -0.10  -0.03   0.06    -0.21  -0.08   0.13    -0.01  -0.00  -0.00
  12   1    -0.02  -0.20  -0.19    -0.05  -0.02  -0.17     0.00  -0.39  -0.21
  13   1     0.05   0.21   0.16     0.11   0.04   0.13    -0.01   0.40   0.22
  14   6    -0.09  -0.03   0.06     0.01   0.00  -0.01    -0.11  -0.04   0.07
  15   1    -0.02  -0.14  -0.18    -0.00  -0.28  -0.18    -0.02   0.28   0.11
  16   1     0.07   0.15   0.15     0.01   0.28   0.18     0.04  -0.28  -0.12
  17   8     0.05   0.02  -0.03     0.05   0.02  -0.03    -0.03  -0.01   0.01
  18   1     0.01   0.00   0.01     0.01   0.00  -0.01    -0.01  -0.00   0.01
                     25                     26                     27
                        a                      a                      a 
 Frequencies --  1270.9941              1289.9845              1327.6663
 Red. masses --     3.8337                 2.1219                 4.2232
 Frc consts  --     0.0000                 0.0000                 0.0000
 IR Inten    --     0.3460                 0.0179                 0.2153
 Raman Activ --     0.0000                 0.0000                 0.0000
 Depolar     --     0.0000                 0.0000                 0.0000
 Atom AN      X      Y      Z        X      Y      Z        X      Y      Z
   1   6    -0.07   0.09  -0.06     0.07   0.03  -0.05    -0.07   0.09  -0.06
   2   1     0.06   0.05   0.12    -0.01  -0.00   0.00     0.07   0.05   0.14
   3   1     0.02  -0.05  -0.03    -0.03  -0.03  -0.06     0.05  -0.01   0.00
   4   1    -0.01  -0.06  -0.01     0.02   0.03   0.07    -0.01  -0.03   0.04
   5   6     0.07  -0.20   0.01     0.10   0.03  -0.06     0.02  -0.29  -0.14
   6   1     0.02   0.18   0.12     0.02  -0.37  -0.14     0.00   0.32   0.19
   7   1     0.01   0.17   0.12    -0.05   0.36   0.16     0.00   0.32   0.19
   8   6    -0.01  -0.17  -0.10    -0.13  -0.05   0.08     0.05  -0.15  -0.01
   9   1    -0.00   0.32   0.18    -0.03   0.34   0.11     0.01   0.14   0.06
  10   1    -0.00   0.34   0.19     0.06  -0.33  -0.12    -0.02   0.13   0.08
  11   6    -0.09  -0.11  -0.22    -0.16  -0.06   0.10    -0.02   0.28   0.14
  12   1    -0.03   0.29   0.14    -0.04   0.21   0.00     0.00  -0.31  -0.17
  13   1    -0.01   0.28   0.12     0.08  -0.19  -0.02     0.01  -0.30  -0.17
  14   6     0.13  -0.12   0.14     0.07   0.03  -0.05    -0.07   0.13  -0.04
  15   1     0.03  -0.05   0.00     0.01  -0.31  -0.15    -0.02  -0.15  -0.10
  16   1     0.02  -0.05   0.01    -0.02   0.30   0.16    -0.00  -0.15  -0.11
  17   8    -0.10   0.07  -0.12     0.04   0.01  -0.02     0.08  -0.05   0.10
  18   1     0.18   0.07   0.33     0.01   0.00  -0.01    -0.09  -0.04  -0.18
                     28                     29                     30
                        a                      a                      a 
 Frequencies --  1372.2759              1383.5458              1416.0540
 Red. masses --     5.0696                 5.0321                 3.1813
 Frc consts  --     0.0000                 0.0000                 0.0000
 IR Inten    --     0.1161                 0.2464                 0.0504
 Raman Activ --     0.0000                 0.0000                 0.0000
 Depolar     --     0.0000                 0.0000                 0.0000
 Atom AN      X      Y      Z        X      Y      Z        X      Y      Z
   1   6    -0.03   0.06  -0.02     0.00   0.02   0.02    -0.13  -0.24  -0.34
   2   1     0.04   0.03   0.09    -0.01  -0.00  -0.01     0.24   0.07   0.44
   3   1     0.06   0.00   0.02    -0.00  -0.02  -0.01     0.21   0.38   0.27
   4   1    -0.01  -0.02   0.05     0.00  -0.02  -0.01    -0.03   0.29   0.42
   5   6    -0.02  -0.31  -0.22    -0.00  -0.06  -0.04    -0.00   0.08   0.04
   6   1    -0.01   0.28   0.19    -0.00   0.03   0.03     0.00  -0.10   0.00
   7   1     0.02   0.29   0.17     0.01   0.03   0.02     0.05  -0.08  -0.03
   8   6     0.01   0.34   0.22    -0.01   0.17   0.08    -0.01   0.01  -0.02
   9   1     0.01  -0.32  -0.19    -0.00  -0.12  -0.06    -0.00  -0.00  -0.01
  10   1    -0.01  -0.32  -0.18     0.01  -0.11  -0.06    -0.01  -0.00  -0.01
  11   6     0.02  -0.13  -0.03    -0.01  -0.28  -0.18     0.01  -0.03  -0.01
  12   1     0.01   0.09   0.02    -0.01   0.20   0.14     0.00   0.02   0.02
  13   1    -0.03   0.08   0.04     0.02   0.21   0.12     0.00   0.02   0.02
  14   6     0.03  -0.15  -0.04    -0.05   0.40   0.15    -0.00   0.02   0.01
  15   1     0.01   0.18   0.12    -0.02  -0.39  -0.26    -0.00  -0.01  -0.01
  16   1     0.00   0.18   0.12    -0.02  -0.39  -0.25    -0.00  -0.01  -0.01
  17   8    -0.05   0.03  -0.06     0.09  -0.06   0.11     0.00  -0.00   0.00
  18   1     0.06   0.03   0.11    -0.11  -0.05  -0.21    -0.00  -0.00  -0.01
                     31                     32                     33
                        a                      a                      a 
 Frequencies --  1492.8267              1494.4964              1498.2134
 Red. masses --     1.9339                 1.8382                 1.9838
 Frc consts  --     0.0000                 0.0000                 0.0000
 IR Inten    --     0.0563                 0.0942                 0.0802
 Raman Activ --     0.0000                 0.0000                 0.0000
 Depolar     --     0.0000                 0.0000                 0.0000
 Atom AN      X      Y      Z        X      Y      Z        X      Y      Z
   1   6     0.01  -0.01   0.02    -0.01   0.00  -0.01    -0.03   0.03  -0.03
   2   1     0.01   0.01   0.03     0.00  -0.00   0.00    -0.04  -0.01  -0.06
   3   1    -0.08   0.02  -0.02     0.04  -0.00   0.02     0.16  -0.04   0.04
   4   1     0.00   0.05  -0.07    -0.00  -0.01   0.04    -0.00  -0.10   0.14
   5   6    -0.06   0.04  -0.07     0.06  -0.06   0.06     0.09  -0.04   0.13
   6   1    -0.01  -0.11   0.21     0.01   0.14  -0.22     0.01   0.17  -0.33
   7   1     0.22  -0.03   0.07    -0.25   0.05  -0.07    -0.36   0.04  -0.11
   8   6    -0.04  -0.00  -0.07    -0.06   0.06  -0.07     0.12  -0.08   0.15
   9   1    -0.00  -0.07   0.15    -0.01  -0.14   0.21     0.01   0.21  -0.39
  10   1     0.16  -0.01   0.05     0.24  -0.05   0.06    -0.42   0.06  -0.12
  11   6     0.12  -0.07   0.16    -0.07   0.07  -0.07     0.07  -0.06   0.07
  12   1     0.02   0.24  -0.44    -0.01  -0.16   0.23     0.01   0.13  -0.21
  13   1    -0.48   0.07  -0.14     0.27  -0.06   0.07    -0.23   0.04  -0.06
  14   6     0.08  -0.05   0.10     0.11  -0.11   0.11     0.04  -0.02   0.05
  15   1     0.00   0.14  -0.30     0.00   0.26  -0.43     0.00   0.07  -0.14
  16   1    -0.31   0.03  -0.11    -0.47   0.09  -0.14    -0.15   0.02  -0.05
  17   8     0.01  -0.00   0.02     0.01   0.01   0.03     0.01   0.00   0.01
  18   1    -0.00  -0.00  -0.01     0.00   0.00   0.01    -0.00  -0.00  -0.00
                     34                     35                     36
                        a                      a                      a 
 Frequencies --  1500.9105              1504.5685              1507.5486
 Red. masses --     1.7825                 1.5320                 1.6444
 Frc consts  --     0.0000                 0.0000                 0.0000
 IR Inten    --     0.0509                 0.0281                 0.0243
 Raman Activ --     0.0000                 0.0000                 0.0000
 Depolar     --     0.0000                 0.0000                 0.0000
 Atom AN      X      Y      Z        X      Y      Z        X      Y      Z
   1   6     0.00   0.01   0.01    -0.17  -0.06   0.11     0.10  -0.17   0.07
   2   1    -0.02  -0.00  -0.03     0.58   0.21  -0.36     0.15   0.04   0.28
   3   1    -0.01  -0.02  -0.01     0.15  -0.42  -0.15    -0.57   0.21  -0.10
   4   1    -0.00  -0.02  -0.02    -0.02   0.46   0.08     0.01   0.42  -0.46
   5   6    -0.10   0.08  -0.11    -0.04  -0.01   0.02     0.06  -0.08   0.05
   6   1    -0.01  -0.22   0.35    -0.01  -0.01  -0.02     0.01   0.09  -0.10
   7   1     0.39  -0.08   0.11     0.01   0.01   0.02    -0.13   0.04  -0.01
   8   6     0.09  -0.07   0.10     0.00   0.00  -0.00     0.03   0.00   0.05
   9   1     0.01   0.19  -0.33    -0.00  -0.02  -0.01     0.00   0.06  -0.12
  10   1    -0.37   0.06  -0.10    -0.00   0.02   0.01    -0.13   0.01  -0.04
  11   6    -0.05   0.03  -0.07     0.00   0.00  -0.00    -0.00  -0.01  -0.01
  12   1    -0.00  -0.12   0.22     0.00   0.00   0.00     0.00  -0.01   0.02
  13   1     0.24  -0.04   0.07    -0.00  -0.00  -0.00     0.02   0.00   0.01
  14   6     0.06  -0.06   0.06     0.00  -0.00   0.00     0.01  -0.01   0.01
  15   1    -0.00   0.14  -0.24    -0.00   0.00  -0.00    -0.00   0.02  -0.02
  16   1    -0.26   0.05  -0.08    -0.00   0.00  -0.00    -0.03   0.01  -0.01
  17   8     0.01   0.01   0.02     0.00   0.00   0.00     0.00   0.00   0.00
  18   1     0.00   0.00   0.00    -0.00  -0.00   0.00    -0.00  -0.00  -0.00
                     37                     38                     39
                        a                      a                      a 
 Frequencies --  2849.2143              2882.8287              2957.7568
 Red. masses --     1.9746                 1.4189                 1.9278
 Frc consts  --     0.0000                 0.0000                 0.0000
 IR Inten    --     0.3896                 0.3147                 0.1088
 Raman Activ --     0.0000                 0.0000                 0.0000
 Depolar     --     0.0000                 0.0000                 0.0000
 Atom AN      X      Y      Z        X      Y      Z        X      Y      Z
   1   6     0.00   0.00  -0.00     0.00  -0.00   0.00    -0.00  -0.00   0.00
   2   1     0.00  -0.00  -0.00    -0.00   0.00  -0.00    -0.00  -0.00   0.00
   3   1    -0.00  -0.00   0.00     0.00   0.00  -0.00     0.00   0.01  -0.02
   4   1    -0.00   0.00   0.00    -0.00  -0.00   0.00     0.02   0.00   0.00
   5   6     0.00   0.00  -0.00     0.00  -0.00   0.00     0.09   0.03  -0.06
   6   1    -0.00  -0.00  -0.00    -0.00  -0.00  -0.00    -0.28   0.01  -0.01
   7   1    -0.00  -0.00   0.00     0.00   0.00  -0.00    -0.08  -0.13   0.23
   8   6     0.01   0.00  -0.00     0.00  -0.00   0.01    -0.21  -0.08   0.13
   9   1    -0.01   0.00   0.00    -0.02   0.00   0.00     0.61  -0.01   0.02
  10   1    -0.00  -0.01   0.01     0.01   0.01  -0.02     0.18   0.29  -0.50
  11   6     0.01   0.00  -0.00     0.00   0.00   0.00     0.04   0.01  -0.02
  12   1    -0.04   0.00  -0.00    -0.03  -0.00  -0.00    -0.12   0.00  -0.01
  13   1    -0.01  -0.02   0.03     0.01   0.01  -0.02    -0.03  -0.06   0.10
  14   6    -0.24  -0.09   0.15    -0.11   0.09  -0.13     0.00   0.00  -0.00
  15   1     0.68  -0.02   0.02     0.69   0.01  -0.03     0.00  -0.00   0.00
  16   1     0.20   0.33  -0.55    -0.27  -0.32   0.55    -0.00   0.00  -0.00
  17   8    -0.01  -0.00   0.00    -0.01  -0.01  -0.02     0.00   0.00  -0.00
  18   1     0.00   0.00  -0.00    -0.00  -0.00  -0.00    -0.00  -0.00   0.00
                     40                     41                     42
                        a                      a                      a 
 Frequencies --  2973.6420              2975.2449              2985.2791
 Red. masses --     1.9988                 1.4549                 1.4948
 Frc consts  --     0.0000                 0.0000                 0.0000
 IR Inten    --     0.2545                 0.1393                 0.2032
 Raman Activ --     0.0000                 0.0000                 0.0000
 Depolar     --     0.0000                 0.0000                 0.0000
 Atom AN      X      Y      Z        X      Y      Z        X      Y      Z
   1   6     0.03   0.01  -0.02    -0.00   0.01  -0.01    -0.02   0.03  -0.01
   2   1     0.01   0.00  -0.00     0.00  -0.01  -0.00     0.02  -0.06  -0.00
   3   1    -0.03  -0.04   0.07    -0.01  -0.01   0.01    -0.03  -0.03   0.06
   4   1    -0.09   0.00  -0.01     0.01  -0.00  -0.00     0.07   0.01  -0.00
   5   6    -0.22  -0.08   0.13    -0.03   0.02  -0.04     0.11  -0.08   0.14
   6   1     0.59  -0.01   0.02     0.21   0.00  -0.00    -0.64  -0.01   0.02
   7   1     0.18   0.28  -0.50    -0.07  -0.09   0.15     0.24   0.30  -0.52
   8   6    -0.09  -0.03   0.05     0.11  -0.08   0.14     0.03  -0.02   0.04
   9   1     0.25  -0.00   0.01    -0.65  -0.01   0.02    -0.17  -0.00   0.01
  10   1     0.07   0.11  -0.19     0.24   0.31  -0.54     0.06   0.08  -0.14
  11   6     0.07   0.02  -0.04    -0.01   0.01  -0.01    -0.03   0.02  -0.04
  12   1    -0.19   0.00  -0.01     0.08   0.00  -0.00     0.17   0.00  -0.00
  13   1    -0.05  -0.09   0.15    -0.03  -0.04   0.07    -0.06  -0.08   0.14
  14   6     0.00   0.00  -0.00     0.00  -0.00   0.00    -0.00   0.00  -0.00
  15   1    -0.00  -0.00  -0.00    -0.02   0.00   0.00    -0.00   0.00   0.00
  16   1    -0.00  -0.00   0.00     0.01   0.01  -0.02    -0.00   0.00   0.00
  17   8     0.00   0.00  -0.00     0.00  -0.00   0.00     0.00  -0.00  -0.00
  18   1    -0.00  -0.00   0.00    -0.00   0.00   0.00    -0.00   0.00   0.00
                     43                     44                     45
                        a                      a                      a 
 Frequencies --  2989.7142              3000.8104              3030.3826
 Red. masses --     2.0156                 1.5018                 1.9600
 Frc consts  --     0.0000                 0.0000                 0.0000
 IR Inten    --     0.3623                 0.2821                 0.2924
 Raman Activ --     0.0000                 0.0000                 0.0000
 Depolar     --     0.0000                 0.0000                 0.0000
 Atom AN      X      Y      Z        X      Y      Z        X      Y      Z
   1   6     0.01   0.00  -0.01    -0.01   0.01  -0.01     0.24   0.08  -0.14
   2   1     0.00   0.00  -0.00     0.01  -0.03  -0.00     0.03   0.02  -0.02
   3   1    -0.01  -0.02   0.03    -0.01  -0.02   0.03    -0.20  -0.31   0.55
   4   1    -0.04   0.00  -0.00     0.04   0.00  -0.00    -0.67   0.01  -0.03
   5   6    -0.04  -0.02   0.03     0.02  -0.02   0.03     0.04   0.01  -0.02
   6   1     0.12  -0.00   0.00    -0.14  -0.00   0.01    -0.09   0.00  -0.00
   7   1     0.04   0.06  -0.10     0.05   0.07  -0.12    -0.03  -0.04   0.07
   8   6    -0.07  -0.03   0.04     0.02  -0.02   0.03     0.01   0.00  -0.01
   9   1     0.18  -0.00   0.00    -0.12  -0.00   0.00    -0.03   0.00  -0.00
  10   1     0.06   0.09  -0.15     0.05   0.06  -0.10    -0.01  -0.01   0.02
  11   6    -0.23  -0.08   0.14     0.11  -0.08   0.15     0.00   0.00  -0.00
  12   1     0.64  -0.00   0.03    -0.66  -0.02   0.01    -0.01  -0.00  -0.00
  13   1     0.19   0.29  -0.53     0.24   0.30  -0.54    -0.00  -0.01   0.01
  14   6    -0.02  -0.01   0.01     0.01  -0.01   0.01     0.00   0.00  -0.00
  15   1     0.04   0.00  -0.00    -0.03  -0.00   0.00    -0.00   0.00   0.00
  16   1     0.01   0.02  -0.03     0.01   0.01  -0.02    -0.00  -0.00   0.00
  17   8     0.00   0.00  -0.00    -0.00   0.00  -0.00    -0.00  -0.00   0.00
  18   1    -0.00  -0.00   0.00     0.00  -0.01  -0.00     0.00   0.00  -0.00
                     46                     47                     48
                        a                      a                      a 
 Frequencies --  3033.4222              3038.9362              3564.3893
 Red. masses --     1.8367                 1.3559                 1.8755
 Frc consts  --     0.0000                 0.0000                 0.0000
 IR Inten    --     0.2710                 0.1827                 0.1442
 Raman Activ --     0.0000                 0.0000                 0.0000
 Depolar     --     0.0000                 0.0000                 0.0000
 Atom AN      X      Y      Z        X      Y      Z        X      Y      Z
   1   6    -0.14   0.19  -0.13    -0.01   0.16   0.07     0.00  -0.00  -0.00
   2   1     0.16  -0.46  -0.01     0.29  -0.78   0.02    -0.00  -0.00  -0.00
   3   1    -0.22  -0.25   0.48     0.12   0.19  -0.30    -0.00  -0.00   0.00
   4   1     0.57   0.04  -0.01    -0.37   0.02   0.00     0.00   0.00  -0.00
   5   6    -0.02   0.02  -0.02    -0.00   0.01   0.00    -0.00  -0.00  -0.00
   6   1     0.08   0.00  -0.00     0.01   0.00   0.00    -0.00   0.00   0.00
   7   1    -0.03  -0.04   0.07    -0.00  -0.00   0.01     0.00   0.00  -0.00
   8   6    -0.01   0.01  -0.01     0.00  -0.00   0.00     0.00  -0.00   0.00
   9   1     0.05  -0.00  -0.00    -0.00  -0.00   0.00     0.00  -0.00  -0.00
  10   1    -0.02  -0.02   0.04     0.00   0.00  -0.00    -0.00  -0.00   0.00
  11   6    -0.00   0.00  -0.00    -0.00   0.00  -0.00    -0.00  -0.00  -0.00
  12   1     0.02   0.00  -0.00     0.00  -0.00  -0.00    -0.01   0.00   0.00
  13   1    -0.01  -0.01   0.02    -0.00  -0.00   0.00     0.00   0.00  -0.00
  14   6    -0.00   0.00  -0.00     0.00  -0.00  -0.00     0.00  -0.00  -0.00
  15   1     0.00  -0.00  -0.00    -0.00  -0.00  -0.00    -0.00   0.00  -0.00
  16   1    -0.00  -0.00   0.00     0.00   0.00  -0.00    -0.00   0.00  -0.00
  17   8     0.00  -0.00   0.00     0.00   0.00   0.00     0.08  -0.23  -0.01
  18   1    -0.00   0.00  -0.00    -0.00   0.00  -0.00    -0.31   0.92   0.03
