 Entering Gaussian System
 *********************************************
 Gaussian 98:
 frequency output generated by the xtb code
 *********************************************
                         Standard orientation:
 --------------------------------------------------------------------
  Center     Atomic     Atomic              Coordinates (Angstroms)
  Number     Number      Type              X           Y           Z
 --------------------------------------------------------------------
    1          6             0       -2.476848   -0.339628   -0.067029
    2          1             0       -2.113575   -1.364565   -0.063897
    3          1             0       -2.122080    0.147518   -0.972756
    4          1             0       -3.564191   -0.360948   -0.094450
    5          6             0       -1.987971    0.407163    1.168086
    6          1             0       -0.896106    0.401595    1.187491
    7          1             0       -2.337077   -0.107558    2.065744
    8          6             0       -2.483993    1.851058    1.191356
    9          1             0       -3.576642    1.857122    1.172970
   10          1             0       -2.136322    2.366102    0.292412
   11          6             0       -1.994409    2.601153    2.425714
   12          1             0       -0.903636    2.610821    2.451788
   13          1             0       -2.342028    2.101977    3.331549
   14          6             0       -2.488422    4.043538    2.452197
   15          1             0       -3.588657    4.059507    2.445730
   16          1             0       -2.134185    4.573994    1.555571
   17          8             0       -1.993433    4.664180    3.619694
   18          1             0       -2.298919    5.576331    3.647582
 --------------------------------------------------------------------
     1 basis functions        1 primitive gaussians
     1 alpha electrons        1 beta electrons
 
 Harmonic frequencies (cm**-1), IR intensities (KM/Mole),
 Raman scattering activities (A**4/amu), Raman depolarization ratios,
 reduced masses (AMU), force constants (mDyne/A) and normal coordinates:
                      1                      2                      3
                        a                      a                      a 
 Frequencies --    66.5601                96.4546               130.7106
 Red. masses --    99.0000                99.0000                99.0000
 Frc consts  --    99.0000                99.0000                99.0000
 IR Inten    --    99.0000                99.0000                99.0000
 Raman Activ --     0.0000                 0.0000                 0.0000
 Depolar     --     0.0000                 0.0000                 0.0000
 Atom AN      X      Y      Z        X      Y      Z        X      Y      Z
   1   6     0.35   0.12  -0.21     0.03   0.01  -0.02    -0.19  -0.07   0.11
   2   1     0.11   0.04  -0.07     0.15   0.05  -0.10    -0.05  -0.02   0.03
   3   1     0.20   0.08  -0.00    -0.18   0.09  -0.03    -0.15  -0.05  -0.02
   4   1     0.10   0.03  -0.18     0.01  -0.15   0.14    -0.06  -0.02   0.14
   5   6    -0.14  -0.05   0.09     0.23   0.08  -0.14     0.21   0.08  -0.13
   6   1    -0.04   0.01   0.13     0.07   0.14  -0.16     0.06  -0.01  -0.11
   7   1    -0.12  -0.06  -0.03     0.22  -0.03  -0.01     0.10   0.07   0.01
   8   6    -0.24  -0.08   0.14    -0.26  -0.09   0.16     0.35   0.12  -0.21
   9   1    -0.07  -0.04   0.04    -0.08  -0.13   0.09     0.10   0.07  -0.24
  10   1    -0.08  -0.01   0.05    -0.16   0.04   0.05     0.26   0.06   0.02
  11   6    -0.25  -0.09   0.15    -0.31  -0.11   0.19    -0.31  -0.11   0.19
  12   1    -0.07  -0.03   0.04    -0.09  -0.16   0.14    -0.09  -0.04   0.23
  13   1    -0.07  -0.02   0.05    -0.21   0.05   0.05    -0.24  -0.08  -0.03
  14   6    -0.19  -0.07   0.12     0.28   0.10  -0.17    -0.23  -0.08   0.14
  15   1    -0.06  -0.00   0.18     0.08   0.16  -0.20    -0.07  -0.00   0.13
  16   1    -0.16  -0.07  -0.04     0.27  -0.04  -0.01    -0.13  -0.07  -0.01
  17   8     0.44   0.16  -0.27    -0.02  -0.01   0.01     0.20   0.07  -0.12
  18   1     0.12   0.04  -0.07     0.12   0.04  -0.07     0.05   0.02  -0.03
                      4                      5                      6
                        a                      a                      a 
 Frequencies --   290.4043               233.3532               137.2052
 Red. masses --    99.0000                99.0000                99.0000
 Frc consts  --    99.0000                99.0000                99.0000
 IR Inten    --    99.0000                99.0000                99.0000
 Raman Activ --     0.0000                 0.0000                 0.0000
 Depolar     --     0.0000                 0.0000                 0.0000
 Atom AN      X      Y      Z        X      Y      Z        X      Y      Z
   1   6     0.00  -0.00  -0.00    -0.04  -0.01   0.02    -0.23   0.29  -0.20
   2   1     0.01   0.00  -0.01    -0.46  -0.16   0.28    -0.13   0.06  -0.17
   3   1    -0.01   0.01   0.00     0.37  -0.34  -0.02    -0.07   0.15  -0.02
   4   1     0.00  -0.02   0.01    -0.02   0.46  -0.19    -0.07   0.15  -0.03
   5   6    -0.01  -0.00   0.00     0.22   0.08  -0.13     0.05  -0.18  -0.02
   6   1    -0.00  -0.01   0.01     0.06   0.07  -0.13     0.01  -0.10  -0.04
   7   1    -0.01   0.01   0.00     0.16   0.01  -0.01     0.01  -0.10  -0.04
   8   6     0.03   0.01  -0.02    -0.11  -0.04   0.06     0.22  -0.14   0.28
   9   1     0.01   0.01   0.00    -0.03  -0.09   0.09     0.06  -0.02   0.09
  10   1     0.01  -0.00  -0.01    -0.12   0.04   0.01     0.06  -0.02   0.09
  11   6     0.07   0.02  -0.04    -0.07  -0.02   0.04     0.22  -0.13   0.28
  12   1     0.02   0.05  -0.05    -0.02  -0.02   0.01     0.06  -0.02   0.09
  13   1     0.07  -0.01  -0.01    -0.03   0.00   0.02     0.06  -0.02   0.09
  14   6    -0.09  -0.03   0.06     0.00   0.00  -0.00     0.04  -0.18  -0.04
  15   1    -0.03  -0.02   0.02     0.00   0.02  -0.01     0.01  -0.11  -0.05
  16   1    -0.04  -0.00   0.02     0.02  -0.01  -0.00     0.01  -0.11  -0.05
  17   8    -0.20  -0.07   0.12    -0.01  -0.00   0.00    -0.25   0.32  -0.22
  18   1     0.78   0.27  -0.48     0.04   0.02  -0.03    -0.11   0.07  -0.15
                      7                      8                      9
                        a                      a                      a 
 Frequencies --   310.5405               365.4329               478.4648
 Red. masses --    99.0000                99.0000                99.0000
 Frc consts  --    99.0000                99.0000                99.0000
 IR Inten    --    99.0000                99.0000                99.0000
 Raman Activ --     0.0000                 0.0000                 0.0000
 Depolar     --     0.0000                 0.0000                 0.0000
 Atom AN      X      Y      Z        X      Y      Z        X      Y      Z
   1   6     0.07  -0.42  -0.13     0.07   0.20   0.23     0.01   0.23   0.14
   2   1     0.10  -0.09   0.11     0.05   0.07   0.12    -0.07   0.04  -0.09
   3   1     0.03  -0.21  -0.08     0.02   0.03   0.05    -0.01   0.15   0.08
   4   1     0.02  -0.21  -0.08     0.02   0.03   0.05    -0.00   0.15   0.08
   5   6    -0.20   0.07  -0.29    -0.09   0.41   0.09     0.15  -0.08   0.19
   6   1    -0.06   0.03  -0.07    -0.03   0.16   0.05     0.04   0.01   0.06
   7   1    -0.05   0.04  -0.07    -0.02   0.16   0.05     0.03   0.00   0.07
   8   6    -0.09   0.14  -0.07    -0.14   0.29  -0.05    -0.15  -0.19  -0.35
   9   1    -0.03   0.08   0.01    -0.04   0.12   0.01    -0.04  -0.11  -0.13
  10   1    -0.03   0.08   0.01    -0.03   0.12   0.01    -0.04  -0.11  -0.13
  11   6     0.13  -0.14   0.13     0.14  -0.28   0.07    -0.12  -0.23  -0.32
  12   1     0.04  -0.08   0.01     0.04  -0.11  -0.01    -0.03  -0.15  -0.13
  13   1     0.03  -0.08   0.01     0.03  -0.11  -0.00    -0.03  -0.15  -0.13
  14   6     0.18  -0.08   0.24     0.09  -0.40  -0.09     0.16  -0.11   0.21
  15   1     0.05  -0.06   0.05     0.02  -0.15  -0.05     0.05  -0.02   0.06
  16   1     0.05  -0.06   0.05     0.02  -0.16  -0.05     0.04  -0.03   0.06
  17   8    -0.09   0.49   0.14    -0.07  -0.21  -0.25    -0.02   0.37   0.19
  18   1    -0.10   0.10  -0.09    -0.05  -0.06  -0.11    -0.07   0.07  -0.08
                     10                     11                     12
                        a                      a                      a 
 Frequencies --   772.6090               880.3317              1162.7102
 Red. masses --    99.0000                99.0000                99.0000
 Frc consts  --    99.0000                99.0000                99.0000
 IR Inten    --    99.0000                99.0000                99.0000
 Raman Activ --     0.0000                 0.0000                 0.0000
 Depolar     --     0.0000                 0.0000                 0.0000
 Atom AN      X      Y      Z        X      Y      Z        X      Y      Z
   1   6     0.01   0.00  -0.01     0.10   0.04  -0.06     0.06   0.02  -0.04
   2   1    -0.03  -0.01   0.02    -0.10  -0.04   0.06    -0.03  -0.01   0.02
   3   1    -0.10  -0.06  -0.07    -0.18  -0.16  -0.18    -0.05  -0.04  -0.06
   4   1    -0.00   0.02   0.14     0.01   0.10   0.29     0.01   0.03   0.08
   5   6     0.11   0.04  -0.06     0.10   0.03  -0.06    -0.12  -0.04   0.07
   6   1     0.02  -0.22   0.28     0.02   0.10   0.22    -0.03   0.09  -0.05
   7   1    -0.32   0.11  -0.09    -0.12  -0.14  -0.16     0.08  -0.08   0.02
   8   6     0.14   0.05  -0.08    -0.21  -0.07   0.13     0.17   0.06  -0.10
   9   1     0.02  -0.22   0.38    -0.05   0.10  -0.26     0.04   0.04   0.18
  10   1    -0.41   0.09  -0.15     0.25  -0.03   0.14    -0.11  -0.07  -0.13
  11   6     0.10   0.03  -0.06     0.03   0.01  -0.02    -0.25  -0.09   0.15
  12   1     0.01  -0.11   0.32     0.01  -0.26  -0.07    -0.06   0.24  -0.09
  13   1    -0.31   0.00  -0.14    -0.06   0.24   0.10     0.17  -0.20   0.02
  14   6     0.02   0.01  -0.01     0.18   0.06  -0.11     0.34   0.12  -0.21
  15   1     0.00  -0.11   0.07     0.03  -0.27   0.19     0.08   0.08   0.42
  16   1    -0.11   0.07  -0.00    -0.27   0.19  -0.04    -0.28  -0.15  -0.30
  17   8    -0.01  -0.00   0.01    -0.06  -0.02   0.03    -0.13  -0.05   0.08
  18   1     0.01   0.00  -0.01     0.01   0.00  -0.01    -0.01  -0.00   0.01
                     13                     14                     15
                        a                      a                      a 
 Frequencies --   803.6900               977.3296              1212.7341
 Red. masses --    99.0000                99.0000                99.0000
 Frc consts  --    99.0000                99.0000                99.0000
 IR Inten    --    99.0000                99.0000                99.0000
 Raman Activ --     0.0000                 0.0000                 0.0000
 Depolar     --     0.0000                 0.0000                 0.0000
 Atom AN      X      Y      Z        X      Y      Z        X      Y      Z
   1   6    -0.04  -0.01   0.03    -0.13  -0.05   0.08     0.24   0.08  -0.14
   2   1     0.08   0.03  -0.05     0.09   0.03  -0.06    -0.10  -0.04   0.06
   3   1     0.16   0.12   0.14     0.16   0.14   0.18    -0.16  -0.13  -0.19
   4   1    -0.00  -0.06  -0.24    -0.02  -0.10  -0.26     0.04   0.09   0.26
   5   6    -0.17  -0.06   0.10     0.10   0.03  -0.06    -0.33  -0.11   0.20
   6   1    -0.03   0.15  -0.32     0.02  -0.32  -0.06    -0.07   0.03  -0.24
   7   1     0.32  -0.04   0.15    -0.09   0.29   0.10     0.19   0.01   0.17
   8   6    -0.01  -0.00   0.00     0.05   0.02  -0.03     0.25   0.09  -0.15
   9   1    -0.00   0.14   0.07     0.01  -0.32  -0.13     0.05  -0.17   0.11
  10   1     0.01  -0.13  -0.07    -0.04   0.31   0.15    -0.15   0.13  -0.05
  11   6     0.17   0.06  -0.10    -0.14  -0.05   0.09    -0.10  -0.03   0.06
  12   1     0.04  -0.23   0.30    -0.03  -0.17  -0.25    -0.02  -0.20  -0.19
  13   1    -0.34   0.12  -0.12     0.12   0.20   0.20     0.05   0.21   0.16
  14   6     0.09   0.03  -0.06     0.15   0.05  -0.09    -0.09  -0.03   0.06
  15   1     0.02  -0.25   0.16     0.03  -0.16   0.13    -0.02  -0.14  -0.18
  16   1    -0.24   0.17  -0.02    -0.17   0.11  -0.04     0.07   0.15   0.15
  17   8    -0.04  -0.02   0.03    -0.04  -0.01   0.02     0.05   0.02  -0.03
  18   1     0.02   0.01  -0.01     0.00   0.00  -0.00     0.01   0.00   0.01
                     16                     17                     18
                        a                      a                      a 
 Frequencies --  1492.8267              1498.2134              1494.4964
 Red. masses --    99.0000                99.0000                99.0000
 Frc consts  --    99.0000                99.0000                99.0000
 IR Inten    --    99.0000                99.0000                99.0000
 Raman Activ --     0.0000                 0.0000                 0.0000
 Depolar     --     0.0000                 0.0000                 0.0000
 Atom AN      X      Y      Z        X      Y      Z        X      Y      Z
   1   6     0.01  -0.01   0.02    -0.03   0.03  -0.03    -0.01   0.00  -0.01
   2   1     0.01   0.01   0.03    -0.04  -0.01  -0.06     0.00  -0.00   0.00
   3   1    -0.08   0.02  -0.02     0.16  -0.04   0.04     0.04  -0.00   0.02
   4   1     0.00   0.05  -0.07    -0.00  -0.10   0.14    -0.00  -0.01   0.04
   5   6    -0.06   0.04  -0.07     0.09  -0.04   0.13     0.06  -0.06   0.06
   6   1    -0.01  -0.11   0.21     0.01   0.17  -0.33     0.01   0.14  -0.22
   7   1     0.22  -0.03   0.07    -0.36   0.04  -0.11    -0.25   0.05  -0.07
   8   6    -0.04  -0.00  -0.07     0.12  -0.08   0.15    -0.06   0.06  -0.07
   9   1    -0.00  -0.07   0.15     0.01   0.21  -0.39    -0.01  -0.14   0.21
  10   1     0.16  -0.01   0.05    -0.42   0.06  -0.12     0.24  -0.05   0.06
  11   6     0.12  -0.07   0.16     0.07  -0.06   0.07    -0.07   0.07  -0.07
  12   1     0.02   0.24  -0.44     0.01   0.13  -0.21    -0.01  -0.16   0.23
  13   1    -0.48   0.07  -0.14    -0.23   0.04  -0.06     0.27  -0.06   0.07
  14   6     0.08  -0.05   0.10     0.04  -0.02   0.05     0.11  -0.11   0.11
  15   1     0.00   0.14  -0.30     0.00   0.07  -0.14     0.00   0.26  -0.43
  16   1    -0.31   0.03  -0.11    -0.15   0.02  -0.05    -0.47   0.09  -0.14
  17   8     0.01  -0.00   0.02     0.01   0.00   0.01     0.01   0.01   0.03
  18   1    -0.00  -0.00  -0.01    -0.00  -0.00  -0.00     0.00   0.00   0.01
                     19                     20                     21
                        a                      a                      a 
 Frequencies --   941.4174              1500.9105              1017.5314
 Red. masses --    99.0000                99.0000                99.0000
 Frc consts  --    99.0000                99.0000                99.0000
 IR Inten    --    99.0000                99.0000                99.0000
 Raman Activ --     0.0000                 0.0000                 0.0000
 Depolar     --     0.0000                 0.0000                 0.0000
 Atom AN      X      Y      Z        X      Y      Z        X      Y      Z
   1   6    -0.06   0.36   0.12     0.00   0.01   0.01    -0.09  -0.02  -0.15
   2   1     0.24   0.18   0.50    -0.02  -0.00  -0.03     0.04   0.01   0.07
   3   1     0.03  -0.20  -0.10    -0.01  -0.02  -0.01    -0.01  -0.09  -0.08
   4   1    -0.00  -0.21  -0.08    -0.00  -0.02  -0.02    -0.02  -0.09  -0.07
   5   6    -0.16   0.19  -0.16    -0.10   0.08  -0.11     0.09   0.01   0.15
   6   1    -0.04  -0.07  -0.11    -0.01  -0.22   0.35     0.02  -0.06   0.01
   7   1    -0.04  -0.07  -0.11     0.39  -0.08   0.11     0.03  -0.06   0.00
   8   6     0.20  -0.35   0.13     0.09  -0.07   0.10     0.06   0.14   0.18
   9   1     0.05  -0.14   0.01     0.01   0.19  -0.33     0.02  -0.04   0.00
  10   1     0.05  -0.14   0.01    -0.37   0.06  -0.10     0.01  -0.04   0.00
  11   6    -0.05  -0.10  -0.14    -0.05   0.03  -0.07    -0.29   0.43  -0.22
  12   1    -0.01  -0.01  -0.02    -0.00  -0.12   0.22    -0.07   0.11  -0.06
  13   1    -0.01  -0.01  -0.02     0.24  -0.04   0.07    -0.07   0.11  -0.06
  14   6    -0.04   0.01  -0.06     0.06  -0.06   0.06     0.28  -0.33   0.26
  15   1    -0.01   0.03   0.00    -0.00   0.14  -0.24     0.07  -0.07   0.06
  16   1    -0.01   0.03   0.00    -0.26   0.05  -0.08     0.06  -0.07   0.06
  17   8     0.03   0.06   0.08     0.01   0.01   0.02    -0.01  -0.11  -0.08
  18   1     0.00   0.01   0.01     0.00   0.00   0.00    -0.20  -0.08  -0.37
                     22                     23                     24
                        a                      a                      a 
 Frequencies --  1076.9184              1263.0059              1416.0540
 Red. masses --    99.0000                99.0000                99.0000
 Frc consts  --    99.0000                99.0000                99.0000
 IR Inten    --    99.0000                99.0000                99.0000
 Raman Activ --     0.0000                 0.0000                 0.0000
 Depolar     --     0.0000                 0.0000                 0.0000
 Atom AN      X      Y      Z        X      Y      Z        X      Y      Z
   1   6    -0.08  -0.15  -0.22    -0.18  -0.06   0.11    -0.13  -0.24  -0.34
   2   1    -0.04  -0.05  -0.10     0.07   0.02  -0.04     0.24   0.07   0.44
   3   1    -0.03  -0.03  -0.06     0.11   0.08   0.14     0.21   0.38   0.27
   4   1    -0.02  -0.02  -0.06    -0.04  -0.05  -0.18    -0.03   0.29   0.42
   5   6     0.06   0.20   0.22     0.09   0.03  -0.06    -0.00   0.08   0.04
   6   1     0.02   0.09   0.09     0.02   0.33   0.25     0.00  -0.10   0.00
   7   1     0.02   0.09   0.08    -0.04  -0.34  -0.24     0.05  -0.08  -0.03
   8   6     0.13   0.08   0.27     0.19   0.07  -0.12    -0.01   0.01  -0.02
   9   1     0.04   0.05   0.09     0.04   0.10   0.20    -0.00  -0.00  -0.01
  10   1     0.04   0.05   0.09    -0.10  -0.12  -0.17    -0.01  -0.00  -0.01
  11   6    -0.10  -0.16  -0.26    -0.21  -0.08   0.13     0.01  -0.03  -0.01
  12   1    -0.03  -0.00  -0.06    -0.05  -0.02  -0.17     0.00   0.02   0.02
  13   1    -0.04  -0.01  -0.05     0.11   0.04   0.13     0.00   0.02   0.02
  14   6    -0.19  -0.25  -0.45     0.01   0.00  -0.01    -0.00   0.02   0.01
  15   1    -0.03  -0.02  -0.06    -0.00  -0.28  -0.18    -0.00  -0.01  -0.01
  16   1    -0.03  -0.01  -0.06     0.01   0.28   0.18    -0.00  -0.01  -0.01
  17   8     0.17   0.20   0.40     0.05   0.02  -0.03     0.00  -0.00   0.00
  18   1     0.00   0.04   0.03     0.01   0.00  -0.01    -0.00  -0.00  -0.01
                     25                     26                     27
                        a                      a                      a 
 Frequencies --  1090.7114              1107.0300              1130.7488
 Red. masses --    99.0000                99.0000                99.0000
 Frc consts  --    99.0000                99.0000                99.0000
 IR Inten    --    99.0000                99.0000                99.0000
 Raman Activ --     0.0000                 0.0000                 0.0000
 Depolar     --     0.0000                 0.0000                 0.0000
 Atom AN      X      Y      Z        X      Y      Z        X      Y      Z
   1   6    -0.17  -0.04  -0.29    -0.15  -0.04  -0.27    -0.07   0.19  -0.00
   2   1     0.04   0.02   0.08     0.02   0.01   0.03     0.11   0.09   0.24
   3   1    -0.03  -0.14  -0.14    -0.03  -0.10  -0.12     0.03  -0.14  -0.08
   4   1    -0.04  -0.14  -0.13    -0.04  -0.10  -0.12    -0.01  -0.15  -0.06
   5   6     0.18   0.09   0.35     0.08   0.26   0.28     0.21  -0.38   0.12
   6   1     0.05  -0.03   0.07     0.02   0.16   0.12     0.06  -0.27  -0.07
   7   1     0.05  -0.02   0.07     0.01   0.16   0.12     0.05  -0.27  -0.07
   8   6     0.03   0.15   0.14    -0.10  -0.28  -0.33    -0.24   0.39  -0.17
   9   1     0.01  -0.02   0.02    -0.03  -0.21  -0.16    -0.06   0.06  -0.07
  10   1     0.02  -0.01   0.02    -0.02  -0.21  -0.16    -0.06   0.06  -0.07
  11   6     0.03  -0.25  -0.10     0.14   0.17   0.33     0.06   0.10   0.15
  12   1     0.01  -0.25  -0.13     0.04   0.13   0.15     0.01  -0.02  -0.01
  13   1     0.01  -0.25  -0.13     0.04   0.14   0.14     0.00  -0.03   0.00
  14   6     0.03   0.34   0.24    -0.00  -0.07  -0.04    -0.08  -0.14  -0.21
  15   1    -0.00   0.06   0.02     0.00  -0.07  -0.03    -0.01  -0.11  -0.08
  16   1    -0.01   0.06   0.02     0.01  -0.07  -0.03    -0.01  -0.10  -0.08
  17   8    -0.14  -0.08  -0.28     0.02   0.00   0.04     0.06   0.08   0.15
  18   1     0.10   0.02   0.18     0.02   0.01   0.04     0.07   0.04   0.14
                     28                     29                     30
                        a                      a                      a 
 Frequencies --  1211.2988              1270.3749              1507.5486
 Red. masses --    99.0000                99.0000                99.0000
 Frc consts  --    99.0000                99.0000                99.0000
 IR Inten    --    99.0000                99.0000                99.0000
 Raman Activ --     0.0000                 0.0000                 0.0000
 Depolar     --     0.0000                 0.0000                 0.0000
 Atom AN      X      Y      Z        X      Y      Z        X      Y      Z
   1   6    -0.06   0.07  -0.06    -0.02  -0.00   0.01     0.10  -0.17   0.07
   2   1     0.04   0.04   0.09     0.03   0.01  -0.01     0.15   0.04   0.28
   3   1     0.01  -0.07  -0.05     0.02   0.00   0.01    -0.57   0.21  -0.10
   4   1    -0.01  -0.07  -0.03    -0.00  -0.00  -0.02     0.01   0.42  -0.46
   5   6     0.10  -0.12   0.10     0.11   0.04  -0.07     0.06  -0.08   0.05
   6   1     0.02   0.02   0.04     0.03  -0.13   0.00     0.01   0.09  -0.10
   7   1     0.02   0.02   0.05    -0.05   0.13   0.02    -0.13   0.04  -0.01
   8   6    -0.09   0.01  -0.15     0.05   0.01  -0.03     0.03   0.00   0.05
   9   1    -0.02   0.16   0.07     0.01   0.35   0.23     0.00   0.06  -0.12
  10   1    -0.02   0.16   0.06    -0.02  -0.34  -0.22    -0.13   0.01  -0.04
  11   6     0.12  -0.29   0.04    -0.01  -0.00  -0.00    -0.00  -0.01  -0.01
  12   1     0.03   0.11   0.11     0.00  -0.39  -0.21     0.00  -0.01   0.02
  13   1     0.03   0.11   0.11    -0.01   0.40   0.22     0.02   0.00   0.01
  14   6    -0.10   0.14  -0.07    -0.11  -0.04   0.07     0.01  -0.01   0.01
  15   1    -0.02   0.32   0.13    -0.02   0.28   0.11    -0.00   0.02  -0.02
  16   1    -0.03   0.32   0.15     0.04  -0.28  -0.12    -0.03   0.01  -0.01
  17   8     0.08  -0.09   0.07    -0.03  -0.01   0.01     0.00   0.00   0.00
  18   1    -0.29  -0.11  -0.54    -0.01  -0.00   0.01    -0.00  -0.00  -0.00
                     31                     32                     33
                        a                      a                      a 
 Frequencies --  1289.9845              1504.5685              1270.9941
 Red. masses --    99.0000                99.0000                99.0000
 Frc consts  --    99.0000                99.0000                99.0000
 IR Inten    --    99.0000                99.0000                99.0000
 Raman Activ --     0.0000                 0.0000                 0.0000
 Depolar     --     0.0000                 0.0000                 0.0000
 Atom AN      X      Y      Z        X      Y      Z        X      Y      Z
   1   6     0.07   0.03  -0.05    -0.17  -0.06   0.11    -0.07   0.09  -0.06
   2   1    -0.01  -0.00   0.00     0.58   0.21  -0.36     0.06   0.05   0.12
   3   1    -0.03  -0.03  -0.06     0.15  -0.42  -0.15     0.02  -0.05  -0.03
   4   1     0.02   0.03   0.07    -0.02   0.46   0.08    -0.01  -0.06  -0.01
   5   6     0.10   0.03  -0.06    -0.04  -0.01   0.02     0.07  -0.20   0.01
   6   1     0.02  -0.37  -0.14    -0.01  -0.01  -0.02     0.02   0.18   0.12
   7   1    -0.05   0.36   0.16     0.01   0.01   0.02     0.01   0.17   0.12
   8   6    -0.13  -0.05   0.08     0.00   0.00  -0.00    -0.01  -0.17  -0.10
   9   1    -0.03   0.34   0.11    -0.00  -0.02  -0.01    -0.00   0.32   0.18
  10   1     0.06  -0.33  -0.12    -0.00   0.02   0.01    -0.00   0.34   0.19
  11   6    -0.16  -0.06   0.10     0.00   0.00  -0.00    -0.09  -0.11  -0.22
  12   1    -0.04   0.21   0.00     0.00   0.00   0.00    -0.03   0.29   0.14
  13   1     0.08  -0.19  -0.02    -0.00  -0.00  -0.00    -0.01   0.28   0.12
  14   6     0.07   0.03  -0.05     0.00  -0.00   0.00     0.13  -0.12   0.14
  15   1     0.01  -0.31  -0.15    -0.00   0.00  -0.00     0.03  -0.05   0.00
  16   1    -0.02   0.30   0.16    -0.00   0.00  -0.00     0.02  -0.05   0.01
  17   8     0.04   0.01  -0.02     0.00   0.00   0.00    -0.10   0.07  -0.12
  18   1     0.01   0.00  -0.01    -0.00  -0.00   0.00     0.18   0.07   0.33
                     34                     35                     36
                        a                      a                      a 
 Frequencies --  1327.6663              1372.2759              1383.5458
 Red. masses --    99.0000                99.0000                99.0000
 Frc consts  --    99.0000                99.0000                99.0000
 IR Inten    --    99.0000                99.0000                99.0000
 Raman Activ --     0.0000                 0.0000                 0.0000
 Depolar     --     0.0000                 0.0000                 0.0000
 Atom AN      X      Y      Z        X      Y      Z        X      Y      Z
   1   6    -0.07   0.09  -0.06    -0.03   0.06  -0.02     0.00   0.02   0.02
   2   1     0.07   0.05   0.14     0.04   0.03   0.09    -0.01  -0.00  -0.01
   3   1     0.05  -0.01   0.00     0.06   0.00   0.02    -0.00  -0.02  -0.01
   4   1    -0.01  -0.03   0.04    -0.01  -0.02   0.05     0.00  -0.02  -0.01
   5   6     0.02  -0.29  -0.14    -0.02  -0.31  -0.22    -0.00  -0.06  -0.04
   6   1     0.00   0.32   0.19    -0.01   0.28   0.19    -0.00   0.03   0.03
   7   1     0.00   0.32   0.19     0.02   0.29   0.17     0.01   0.03   0.02
   8   6     0.05  -0.15  -0.01     0.01   0.34   0.22    -0.01   0.17   0.08
   9   1     0.01   0.14   0.06     0.01  -0.32  -0.19    -0.00  -0.12  -0.06
  10   1    -0.02   0.13   0.08    -0.01  -0.32  -0.18     0.01  -0.11  -0.06
  11   6    -0.02   0.28   0.14     0.02  -0.13  -0.03    -0.01  -0.28  -0.18
  12   1     0.00  -0.31  -0.17     0.01   0.09   0.02    -0.01   0.20   0.14
  13   1     0.01  -0.30  -0.17    -0.03   0.08   0.04     0.02   0.21   0.12
  14   6    -0.07   0.13  -0.04     0.03  -0.15  -0.04    -0.05   0.40   0.15
  15   1    -0.02  -0.15  -0.10     0.01   0.18   0.12    -0.02  -0.39  -0.26
  16   1    -0.00  -0.15  -0.11     0.00   0.18   0.12    -0.02  -0.39  -0.25
  17   8     0.08  -0.05   0.10    -0.05   0.03  -0.06     0.09  -0.06   0.11
  18   1    -0.09  -0.04  -0.18     0.06   0.03   0.11    -0.11  -0.05  -0.21
                     37                     38                     39
                        a                      a                      a 
 Frequencies --  2957.7568              2973.6420              3030.3826
 Red. masses --    99.0000                99.0000                99.0000
 Frc consts  --    99.0000                99.0000                99.0000
 IR Inten    --    99.0000                99.0000                99.0000
 Raman Activ --     0.0000                 0.0000                 0.0000
 Depolar     --     0.0000                 0.0000                 0.0000
 Atom AN      X      Y      Z        X      Y      Z        X      Y      Z
   1   6    -0.00  -0.00   0.00     0.03   0.01  -0.02     0.24   0.08  -0.14
   2   1    -0.00  -0.00   0.00     0.01   0.00  -0.00     0.03   0.02  -0.02
   3   1     0.00   0.01  -0.02    -0.03  -0.04   0.07    -0.20  -0.31   0.55
   4   1     0.02   0.00   0.00    -0.09   0.00  -0.01    -0.67   0.01  -0.03
   5   6     0.09   0.03  -0.06    -0.22  -0.08   0.13     0.04   0.01  -0.02
   6   1    -0.28   0.01  -0.01     0.59  -0.01   0.02    -0.09   0.00  -0.00
   7   1    -0.08  -0.13   0.23     0.18   0.28  -0.50    -0.03  -0.04   0.07
   8   6    -0.21  -0.08   0.13    -0.09  -0.03   0.05     0.01   0.00  -0.01
   9   1     0.61  -0.01   0.02     0.25  -0.00   0.01    -0.03   0.00  -0.00
  10   1     0.18   0.29  -0.50     0.07   0.11  -0.19    -0.01  -0.01   0.02
  11   6     0.04   0.01  -0.02     0.07   0.02  -0.04     0.00   0.00  -0.00
  12   1    -0.12   0.00  -0.01    -0.19   0.00  -0.01    -0.01  -0.00  -0.00
  13   1    -0.03  -0.06   0.10    -0.05  -0.09   0.15    -0.00  -0.01   0.01
  14   6     0.00   0.00  -0.00     0.00   0.00  -0.00     0.00   0.00  -0.00
  15   1     0.00  -0.00   0.00    -0.00  -0.00  -0.00    -0.00   0.00   0.00
  16   1    -0.00   0.00  -0.00    -0.00  -0.00   0.00    -0.00  -0.00   0.00
  17   8     0.00   0.00  -0.00     0.00   0.00  -0.00    -0.00  -0.00   0.00
  18   1    -0.00  -0.00   0.00    -0.00  -0.00   0.00     0.00   0.00  -0.00
                     40                     41                     42
                        a                      a                      a 
 Frequencies --  2849.2143              2989.7142              2882.8287
 Red. masses --    99.0000                99.0000                99.0000
 Frc consts  --    99.0000                99.0000                99.0000
 IR Inten    --    99.0000                99.0000                99.0000
 Raman Activ --     0.0000                 0.0000                 0.0000
 Depolar     --     0.0000                 0.0000                 0.0000
 Atom AN      X      Y      Z        X      Y      Z        X      Y      Z
   1   6     0.00   0.00  -0.00     0.01   0.00  -0.01     0.00  -0.00   0.00
   2   1     0.00  -0.00  -0.00     0.00   0.00  -0.00    -0.00   0.00  -0.00
   3   1    -0.00  -0.00   0.00    -0.01  -0.02   0.03     0.00   0.00  -0.00
   4   1    -0.00   0.00   0.00    -0.04   0.00  -0.00    -0.00  -0.00   0.00
   5   6     0.00   0.00  -0.00    -0.04  -0.02   0.03     0.00  -0.00   0.00
   6   1    -0.00  -0.00  -0.00     0.12  -0.00   0.00    -0.00  -0.00  -0.00
   7   1    -0.00  -0.00   0.00     0.04   0.06  -0.10     0.00   0.00  -0.00
   8   6     0.01   0.00  -0.00    -0.07  -0.03   0.04     0.00  -0.00   0.01
   9   1    -0.01   0.00   0.00     0.18  -0.00   0.00    -0.02   0.00   0.00
  10   1    -0.00  -0.01   0.01     0.06   0.09  -0.15     0.01   0.01  -0.02
  11   6     0.01   0.00  -0.00    -0.23  -0.08   0.14     0.00   0.00   0.00
  12   1    -0.04   0.00  -0.00     0.64  -0.00   0.03    -0.03  -0.00  -0.00
  13   1    -0.01  -0.02   0.03     0.19   0.29  -0.53     0.01   0.01  -0.02
  14   6    -0.24  -0.09   0.15    -0.02  -0.01   0.01    -0.11   0.09  -0.13
  15   1     0.68  -0.02   0.02     0.04   0.00  -0.00     0.69   0.01  -0.03
  16   1     0.20   0.33  -0.55     0.01   0.02  -0.03    -0.27  -0.32   0.55
  17   8    -0.01  -0.00   0.00     0.00   0.00  -0.00    -0.01  -0.01  -0.02
  18   1     0.00   0.00  -0.00    -0.00  -0.00   0.00    -0.00  -0.00  -0.00
                     43                     44                     45
                        a                      a                      a 
 Frequencies --  2975.2449              2985.2791              3000.8104
 Red. masses --    99.0000                99.0000                99.0000
 Frc consts  --    99.0000                99.0000                99.0000
 IR Inten    --    99.0000                99.0000                99.0000
 Raman Activ --     0.0000                 0.0000                 0.0000
 Depolar     --     0.0000                 0.0000                 0.0000
 Atom AN      X      Y      Z        X      Y      Z        X      Y      Z
   1   6    -0.00   0.01  -0.01    -0.02   0.03  -0.01    -0.01   0.01  -0.01
   2   1     0.00  -0.01  -0.00     0.02  -0.06  -0.00     0.01  -0.03  -0.00
   3   1    -0.01  -0.01   0.01    -0.03  -0.03   0.06    -0.01  -0.02   0.03
   4   1     0.01  -0.00  -0.00     0.07   0.01  -0.00     0.04   0.00  -0.00
   5   6    -0.03   0.02  -0.04     0.11  -0.08   0.14     0.02  -0.02   0.03
   6   1     0.21   0.00  -0.00    -0.64  -0.01   0.02    -0.14  -0.00   0.01
   7   1    -0.07  -0.09   0.15     0.24   0.30  -0.52     0.05   0.07  -0.12
   8   6     0.11  -0.08   0.14     0.03  -0.02   0.04     0.02  -0.02   0.03
   9   1    -0.65  -0.01   0.02    -0.17  -0.00   0.01    -0.12  -0.00   0.00
  10   1     0.24   0.31  -0.54     0.06   0.08  -0.14     0.05   0.06  -0.10
  11   6    -0.01   0.01  -0.01    -0.03   0.02  -0.04     0.11  -0.08   0.15
  12   1     0.08   0.00  -0.00     0.17   0.00  -0.00    -0.66  -0.02   0.01
  13   1    -0.03  -0.04   0.07    -0.06  -0.08   0.14     0.24   0.30  -0.54
  14   6     0.00  -0.00   0.00    -0.00   0.00  -0.00     0.01  -0.01   0.01
  15   1    -0.02   0.00   0.00    -0.00   0.00   0.00    -0.03  -0.00   0.00
  16   1     0.01   0.01  -0.02    -0.00   0.00   0.00     0.01   0.01  -0.02
  17   8     0.00  -0.00   0.00     0.00  -0.00  -0.00    -0.00   0.00  -0.00
  18   1    -0.00   0.00   0.00    -0.00   0.00   0.00     0.00  -0.01  -0.00
                     46                     47                     48
                        a                      a                      a 
 Frequencies --  3033.4222              3038.9362              3564.3893
 Red. masses --    99.0000                99.0000                99.0000
 Frc consts  --    99.0000                99.0000                99.0000
 IR Inten    --    99.0000                99.0000                99.0000
 Raman Activ --     0.0000                 0.0000                 0.0000
 Depolar     --     0.0000                 0.0000                 0.0000
 Atom AN      X      Y      Z        X      Y      Z        X      Y      Z
   1   6    -0.14   0.19  -0.13    -0.01   0.16   0.07     0.00  -0.00  -0.00
   2   1     0.16  -0.46  -0.01     0.29  -0.78   0.02    -0.00  -0.00  -0.00
   3   1    -0.22  -0.25   0.48     0.12   0.19  -0.30    -0.00  -0.00   0.00
   4   1     0.57   0.04  -0.01    -0.37   0.02   0.00     0.00   0.00  -0.00
   5   6    -0.02   0.02  -0.02    -0.00   0.01   0.00    -0.00  -0.00  -0.00
   6   1     0.08   0.00  -0.00     0.01   0.00   0.00    -0.00   0.00   0.00
   7   1    -0.03  -0.04   0.07    -0.00  -0.00   0.01     0.00   0.00  -0.00
   8   6    -0.01   0.01  -0.01     0.00  -0.00   0.00     0.00  -0.00   0.00
   9   1     0.05  -0.00  -0.00    -0.00  -0.00   0.00     0.00  -0.00  -0.00
  10   1    -0.02  -0.02   0.04     0.00   0.00  -0.00    -0.00  -0.00   0.00
  11   6    -0.00   0.00  -0.00    -0.00   0.00  -0.00    -0.00  -0.00  -0.00
  12   1     0.02   0.00  -0.00     0.00  -0.00  -0.00    -0.01   0.00   0.00
  13   1    -0.01  -0.01   0.02    -0.00  -0.00   0.00     0.00   0.00  -0.00
  14   6    -0.00   0.00  -0.00     0.00  -0.00  -0.00     0.00  -0.00  -0.00
  15   1     0.00  -0.00  -0.00    -0.00  -0.00  -0.00    -0.00   0.00  -0.00
  16   1    -0.00  -0.00   0.00     0.00   0.00  -0.00    -0.00   0.00  -0.00
  17   8     0.00  -0.00   0.00     0.00   0.00   0.00     0.08  -0.23  -0.01
  18   1    -0.00   0.00  -0.00    -0.00   0.00  -0.00    -0.31   0.92   0.03
