 Entering Gaussian System
 *********************************************
 Gaussian 98:
 frequency output generated by the xtb code
 *********************************************
                         Standard orientation:
 --------------------------------------------------------------------
  Center     Atomic     Atomic              Coordinates (Angstroms)
  Number     Number      Type              X           Y           Z
 --------------------------------------------------------------------
    1          6             0       -2.723606   -0.289656   -0.069570
    2          1             0       -2.333033   -1.304671   -0.040061
    3          1             0       -2.333925    0.202306   -0.957857
    4          1             0       -3.806966   -0.343449   -0.154190
    5          6             0       -2.323514    0.473098    1.187408
    6          1             0       -2.707732    1.494248    1.129687
    7          6             0       -2.856916   -0.195167    2.452392
    8          1             0       -3.946783   -0.252511    2.396848
    9          1             0       -2.475910   -1.218035    2.506461
   10          6             0       -2.456096    0.561333    3.716649
   11          1             0       -1.366051    0.609311    3.777560
   12          1             0       -2.830813    1.584253    3.650560
   13          1             0       -1.234053    0.533250    1.243836
   14          6             0       -3.001505   -0.108901    4.976050
   15          1             0       -2.687064   -1.155883    4.977699
   16          1             0       -4.093800   -0.094456    4.948524
   17          6             0       -2.520662    0.545316    6.271563
   18          1             0       -2.835912   -0.076726    7.113449
   19          1             0       -1.428337    0.575371    6.276300
   20          6             0       -3.063700    1.957373    6.480918
   21          1             0       -2.690626    2.616470    5.695415
   22          1             0       -4.153867    1.937570    6.410764
   23          6             0       -2.654520    2.519258    7.837174
   24          1             0       -1.570468    2.551855    7.924403
   25          1             0       -3.039443    3.528235    7.967075
   26          1             0       -3.042666    1.897840    8.641682
 --------------------------------------------------------------------
     1 basis functions        1 primitive gaussians
     1 alpha electrons        1 beta electrons
 
 Harmonic frequencies (cm**-1), IR intensities (KM/Mole),
 Raman scattering activities (A**4/amu), Raman depolarization ratios,
 reduced masses (AMU), force constants (mDyne/A) and normal coordinates:
                      1                      2                      3
                        a                      a                      a 
 Frequencies --    43.9393                61.8638                69.8080
 Red. masses --     7.2218                 5.7275                 8.5920
 Frc consts  --     0.0000                 0.0000                 0.0000
 IR Inten    --     0.0532                 0.0331                 0.0209
 Raman Activ --     0.0000                 0.0000                 0.0000
 Depolar     --     0.0000                 0.0000                 0.0000
 Atom AN      X      Y      Z        X      Y      Z        X      Y      Z
   1   6     0.39  -0.22   0.01    -0.09   0.09   0.03    -0.03  -0.34  -0.01
   2   1     0.29   0.00   0.05     0.07   0.06  -0.03    -0.05  -0.11   0.06
   3   1     0.06  -0.02   0.00    -0.10   0.08   0.01     0.02  -0.17  -0.03
   4   1     0.13  -0.25  -0.03    -0.02  -0.07   0.05    -0.01  -0.06  -0.01
   5   6    -0.20   0.14  -0.02    -0.18   0.12   0.04     0.03  -0.13  -0.15
   6   1    -0.22  -0.02  -0.05    -0.14   0.00   0.04     0.05  -0.03  -0.11
   7   6    -0.00  -0.02  -0.02     0.16  -0.13   0.05    -0.12   0.17  -0.05
   8   1     0.01  -0.13  -0.02     0.05  -0.13   0.04    -0.04   0.11  -0.02
   9   1     0.12   0.04   0.01     0.13  -0.00  -0.01    -0.09   0.03   0.03
  10   6    -0.35   0.18  -0.03     0.05  -0.08   0.05    -0.00   0.23  -0.12
  11   1    -0.11   0.16   0.01     0.01   0.00   0.03     0.00   0.06  -0.06
  12   1    -0.20   0.01  -0.03    -0.01  -0.03   0.00     0.00   0.07  -0.03
  13   1    -0.07   0.22   0.04    -0.05   0.13  -0.02     0.01  -0.08  -0.03
  14   6    -0.19   0.05  -0.03     0.02  -0.08   0.04     0.08   0.21  -0.09
  15   1    -0.04   0.02  -0.04     0.01  -0.02   0.02     0.02   0.06  -0.05
  16   1    -0.05  -0.00   0.03     0.01  -0.03  -0.00     0.02   0.07  -0.01
  17   6    -0.07  -0.04  -0.03    -0.05  -0.06   0.06     0.16   0.12  -0.07
  18   1    -0.02  -0.01  -0.01    -0.13   0.04   0.02     0.06   0.01  -0.03
  19   1    -0.02  -0.04  -0.02    -0.01  -0.12   0.09     0.05   0.04  -0.04
  20   6     0.08   0.00   0.06     0.37   0.15  -0.26     0.15   0.08   0.10
  21   1     0.02  -0.00   0.01     0.32   0.00  -0.01     0.12   0.08   0.11
  22   1     0.02   0.03   0.05     0.12   0.17  -0.27     0.05   0.04  -0.06
  23   6     0.28  -0.08   0.04    -0.25  -0.02  -0.01    -0.25  -0.27   0.37
  24   1     0.08  -0.05  -0.02    -0.08  -0.16   0.20    -0.08  -0.11   0.21
  25   1     0.11  -0.01   0.03     0.04   0.05  -0.08    -0.06  -0.08   0.14
  26   1     0.09  -0.02   0.02    -0.31   0.05  -0.07    -0.16  -0.13   0.03
                      4                      5                      6
                        a                      a                      a 
 Frequencies --   107.9002               122.0033               160.9202
 Red. masses --     7.9383                 6.7075                 8.3583
 Frc consts  --     0.0000                 0.0000                 0.0000
 IR Inten    --     0.0220                 0.0178                 0.0317
 Raman Activ --     0.0000                 0.0000                 0.0000
 Depolar     --     0.0000                 0.0000                 0.0000
 Atom AN      X      Y      Z        X      Y      Z        X      Y      Z
   1   6    -0.22  -0.12  -0.01    -0.22   0.13  -0.02     0.13   0.24  -0.22
   2   1     0.04   0.00  -0.04    -0.21  -0.02  -0.05     0.09   0.08  -0.16
   3   1    -0.20  -0.00  -0.04    -0.02   0.01  -0.00     0.04   0.18  -0.00
   4   1    -0.07  -0.14   0.11    -0.07   0.20   0.03     0.04   0.03  -0.09
   5   6    -0.06   0.03  -0.14     0.28  -0.19   0.01    -0.06  -0.12   0.06
   6   1    -0.10  -0.02  -0.02     0.16  -0.02   0.06    -0.04  -0.04   0.09
   7   6     0.41  -0.09  -0.01     0.31  -0.20   0.02    -0.06  -0.38  -0.06
   8   1     0.12  -0.12   0.05     0.10  -0.21  -0.06    -0.02  -0.14  -0.02
   9   1     0.20   0.00  -0.02     0.23  -0.00   0.09     0.01  -0.10  -0.03
  10   6     0.35  -0.01  -0.04    -0.36   0.24  -0.03    -0.07  -0.31  -0.09
  11   1     0.10  -0.07   0.06    -0.12   0.29   0.03    -0.02  -0.13  -0.02
  12   1     0.17   0.02  -0.07    -0.30  -0.01  -0.06     0.03  -0.07  -0.07
  13   1    -0.02   0.09  -0.13     0.09  -0.15  -0.05    -0.02  -0.01   0.05
  14   6    -0.14   0.22  -0.13    -0.05   0.02  -0.01    -0.16   0.10   0.09
  15   1    -0.14   0.03  -0.01     0.06   0.03  -0.03    -0.13   0.00   0.08
  16   1    -0.04   0.17  -0.11    -0.02  -0.07   0.03    -0.04   0.11   0.06
  17   6    -0.24   0.04   0.00    -0.03   0.01  -0.02     0.20   0.27  -0.12
  18   1    -0.10  -0.02  -0.03    -0.01   0.00  -0.01     0.18   0.07   0.01
  19   1    -0.07  -0.01   0.03    -0.01  -0.00  -0.01     0.06   0.13  -0.15
  20   6    -0.17   0.04   0.17     0.02   0.03   0.01     0.04   0.18   0.10
  21   1    -0.08   0.02   0.04     0.02   0.01   0.01    -0.02   0.10   0.06
  22   1    -0.05   0.02   0.10     0.01   0.02   0.00     0.01   0.02   0.03
  23   6     0.10  -0.08   0.14     0.05  -0.05   0.04    -0.05  -0.03   0.22
  24   1     0.03  -0.02  -0.02     0.02  -0.04   0.01    -0.02   0.04   0.07
  25   1     0.03  -0.03   0.09     0.04  -0.01   0.02    -0.07  -0.04   0.13
  26   1     0.08  -0.05   0.05    -0.00  -0.01   0.00     0.02  -0.08   0.02
                      7                      8                      9
                        a                      a                      a 
 Frequencies --   229.4802               233.7075               260.7434
 Red. masses --     2.8603                 2.1699                 6.5864
 Frc consts  --     0.0000                 0.0000                 0.0000
 IR Inten    --     0.0300                 0.0034                 0.0337
 Raman Activ --     0.0000                 0.0000                 0.0000
 Depolar     --     0.0000                 0.0000                 0.0000
 Atom AN      X      Y      Z        X      Y      Z        X      Y      Z
   1   6     0.03   0.02  -0.12    -0.04   0.02   0.02    -0.05  -0.03   0.24
   2   1    -0.02  -0.01  -0.03     0.37   0.15  -0.27    -0.04  -0.02   0.12
   3   1     0.06   0.00  -0.01    -0.47   0.29  -0.03    -0.01  -0.07   0.04
   4   1     0.01   0.04  -0.08    -0.02  -0.38   0.32    -0.02   0.02   0.09
   5   6    -0.05  -0.04  -0.05     0.23  -0.13   0.02     0.06   0.12   0.11
   6   1    -0.02  -0.01  -0.01     0.16  -0.00   0.01    -0.00   0.03   0.03
   7   6    -0.04  -0.05  -0.04    -0.10   0.09  -0.00     0.11   0.05   0.06
   8   1    -0.01  -0.01  -0.00    -0.03   0.12  -0.04     0.03  -0.02   0.01
   9   1    -0.01  -0.02  -0.02    -0.12  -0.01   0.03     0.07   0.03   0.01
  10   6     0.03  -0.04  -0.05    -0.08   0.06   0.00    -0.02   0.03   0.07
  11   1     0.01   0.00  -0.04    -0.02   0.03  -0.01    -0.01  -0.04   0.08
  12   1    -0.00  -0.02  -0.01    -0.03   0.01   0.01     0.05   0.02  -0.01
  13   1    -0.02  -0.00  -0.01     0.07  -0.14   0.01     0.02   0.05   0.01
  14   6     0.16  -0.04   0.02    -0.00  -0.01   0.00    -0.32   0.14  -0.02
  15   1     0.12   0.01   0.03     0.02   0.00  -0.01    -0.28  -0.01  -0.06
  16   1     0.05  -0.08  -0.01    -0.00  -0.02   0.01    -0.09   0.23   0.05
  17   6    -0.04   0.11   0.03     0.03  -0.01  -0.01     0.35  -0.08  -0.20
  18   1     0.03   0.00   0.01     0.03  -0.01  -0.00     0.28  -0.05  -0.01
  19   1    -0.01   0.10   0.01     0.01   0.01  -0.02     0.10   0.05  -0.24
  20   6    -0.23   0.02   0.16    -0.02  -0.03  -0.00     0.01  -0.24  -0.08
  21   1    -0.13   0.01   0.02    -0.01  -0.01  -0.00    -0.08  -0.05  -0.04
  22   1    -0.07  -0.02   0.12    -0.00  -0.02   0.01     0.00  -0.16   0.00
  23   6     0.09   0.02   0.07    -0.00  -0.00  -0.02    -0.11  -0.00  -0.16
  24   1     0.03  -0.48   0.13    -0.00  -0.05   0.01    -0.03  -0.13   0.04
  25   1     0.47   0.20  -0.16     0.05   0.02  -0.04     0.08   0.06  -0.17
  26   1    -0.34   0.29   0.06    -0.05   0.04   0.00    -0.17   0.12  -0.02
                     10                     11                     12
                        a                      a                      a 
 Frequencies --   279.5975               347.6943               423.0647
 Red. masses --     8.6384                 8.9363                 9.1289
 Frc consts  --     0.0000                 0.0000                 0.0000
 IR Inten    --     0.0418                 0.0097                 0.0339
 Raman Activ --     0.0000                 0.0000                 0.0000
 Depolar     --     0.0000                 0.0000                 0.0000
 Atom AN      X      Y      Z        X      Y      Z        X      Y      Z
   1   6     0.02  -0.00  -0.29     0.08   0.13  -0.03     0.00  -0.05  -0.42
   2   1     0.01   0.00  -0.11     0.03   0.04  -0.10     0.01  -0.01  -0.18
   3   1     0.02   0.03  -0.06     0.09   0.15   0.08     0.04   0.06  -0.06
   4   1     0.01  -0.00  -0.11     0.03   0.04  -0.10     0.01  -0.01  -0.18
   5   6    -0.03  -0.09  -0.19    -0.20  -0.28   0.28    -0.08  -0.15  -0.22
   6   1    -0.01  -0.02  -0.06    -0.05  -0.07   0.12    -0.02  -0.04  -0.10
   7   6     0.01  -0.02  -0.10    -0.14  -0.17   0.30     0.12   0.21   0.17
   8   1     0.00  -0.02  -0.03    -0.04  -0.05   0.15     0.03   0.05   0.08
   9   1     0.01   0.00  -0.01    -0.03  -0.04   0.16     0.03   0.06   0.08
  10   6    -0.03   0.05  -0.06     0.17   0.32  -0.11     0.03   0.11   0.36
  11   1    -0.01   0.02  -0.01     0.05   0.08  -0.07     0.01   0.02   0.15
  12   1    -0.01   0.01  -0.04     0.05   0.08  -0.09     0.02   0.04   0.13
  13   1    -0.01  -0.02  -0.06    -0.06  -0.08   0.12    -0.02  -0.04  -0.10
  14   6    -0.05   0.11   0.03     0.14   0.32  -0.19    -0.11  -0.00   0.32
  15   1    -0.10   0.01  -0.04    -0.01   0.08  -0.12    -0.08  -0.02   0.07
  16   1    -0.02   0.11   0.03     0.04   0.13  -0.08    -0.03   0.06   0.11
  17   6     0.09  -0.29   0.25    -0.01  -0.09  -0.00     0.09   0.06   0.16
  18   1    -0.03  -0.12   0.02    -0.08  -0.06  -0.05     0.08   0.06   0.10
  19   1     0.03  -0.14   0.09    -0.00  -0.05   0.08     0.02   0.05  -0.00
  20   6     0.18  -0.24   0.29    -0.04  -0.13  -0.09    -0.07   0.01  -0.17
  21   1     0.05  -0.12   0.04    -0.01  -0.05  -0.04    -0.02  -0.00  -0.05
  22   1     0.05  -0.09   0.06    -0.01  -0.05  -0.03    -0.02  -0.02  -0.05
  23   6    -0.12   0.41   0.13    -0.01  -0.11  -0.14     0.00  -0.19  -0.17
  24   1    -0.04   0.20   0.10    -0.00  -0.04  -0.05     0.00  -0.09  -0.08
  25   1    -0.10   0.12  -0.15     0.01  -0.03  -0.04     0.03  -0.05   0.03
  26   1    -0.05   0.23   0.11    -0.00  -0.03  -0.04     0.01  -0.10  -0.08
                     13                     14                     15
                        a                      a                      a 
 Frequencies --   521.4723               767.4964               779.2608
 Red. masses --     8.4783                 1.9695                 2.1437
 Frc consts  --     0.0000                 0.0000                 0.0000
 IR Inten    --     0.0203                 0.0492                 0.0341
 Raman Activ --     0.0000                 0.0000                 0.0000
 Depolar     --     0.0000                 0.0000                 0.0000
 Atom AN      X      Y      Z        X      Y      Z        X      Y      Z
   1   6    -0.01   0.00   0.10    -0.00   0.01   0.00    -0.02   0.00  -0.01
   2   1    -0.01  -0.00   0.09     0.05   0.02   0.05     0.09   0.04   0.08
   3   1    -0.04  -0.07  -0.03     0.01  -0.02  -0.01     0.04  -0.02   0.01
   4   1    -0.01  -0.00   0.09     0.01  -0.06  -0.03     0.01  -0.11  -0.10
   5   6     0.10   0.14  -0.06    -0.05   0.05  -0.01    -0.11   0.06  -0.00
   6   1     0.03   0.04  -0.00     0.19   0.09  -0.03     0.26   0.12  -0.02
   7   6    -0.08  -0.14  -0.24    -0.11   0.04  -0.03    -0.08   0.10   0.02
   8   1    -0.02  -0.05  -0.12    -0.01  -0.34  -0.03    -0.01  -0.25   0.06
   9   1    -0.01  -0.03  -0.11     0.30   0.13   0.03     0.24   0.12  -0.02
  10   6    -0.11  -0.10  -0.18    -0.10   0.10  -0.03    -0.04  -0.04   0.05
  11   1    -0.03  -0.02  -0.11    -0.00  -0.37  -0.01    -0.01  -0.07  -0.02
  12   1    -0.03  -0.03  -0.12     0.35   0.16  -0.01     0.04   0.01   0.10
  13   1     0.03   0.03  -0.00    -0.00  -0.20   0.05    -0.01  -0.29   0.03
  14   6     0.15   0.35   0.26    -0.07   0.11   0.04     0.04  -0.08  -0.04
  15   1    -0.09   0.06   0.06     0.24   0.11  -0.05    -0.08  -0.05   0.00
  16   1     0.04   0.22   0.14    -0.02  -0.24   0.05     0.01   0.07   0.03
  17   6     0.12   0.04   0.42    -0.06  -0.01   0.09     0.10   0.04  -0.12
  18   1    -0.11   0.02   0.07     0.17  -0.07   0.04    -0.28   0.11  -0.07
  19   1     0.03  -0.02   0.27    -0.02   0.12  -0.12     0.03  -0.22   0.19
  20   6    -0.09  -0.06  -0.11    -0.04  -0.08   0.05     0.12   0.09  -0.08
  21   1    -0.03  -0.06  -0.07     0.19  -0.09   0.05    -0.34   0.14  -0.09
  22   1    -0.02  -0.06  -0.05     0.00   0.12  -0.15     0.01  -0.24   0.27
  23   6    -0.01  -0.18  -0.18    -0.01  -0.03  -0.04     0.02   0.02   0.02
  24   1     0.00  -0.10  -0.09     0.00  -0.01  -0.09    -0.01   0.02   0.18
  25   1     0.04  -0.05   0.03     0.02   0.00  -0.03    -0.05  -0.02   0.03
  26   1     0.01  -0.09  -0.08     0.06   0.03   0.05    -0.11  -0.06  -0.10
                     16                     17                     18
                        a                      a                      a 
 Frequencies --   796.3909               856.1355               888.8922
 Red. masses --     2.3766                 3.4801                 4.2900
 Frc consts  --     0.0000                 0.0000                 0.0000
 IR Inten    --     0.0216                 0.0298                 0.0367
 Raman Activ --     0.0000                 0.0000                 0.0000
 Depolar     --     0.0000                 0.0000                 0.0000
 Atom AN      X      Y      Z        X      Y      Z        X      Y      Z
   1   6    -0.03   0.02   0.01     0.07  -0.06   0.02    -0.05   0.01  -0.04
   2   1     0.12   0.06   0.14    -0.15  -0.08  -0.22     0.06   0.03   0.07
   3   1     0.06  -0.04   0.01    -0.08   0.08   0.01     0.03  -0.03  -0.01
   4   1     0.01  -0.14  -0.13    -0.01   0.18   0.17    -0.00  -0.08  -0.09
   5   6    -0.15   0.09  -0.00     0.11  -0.10   0.03    -0.01   0.04  -0.00
   6   1     0.28   0.14   0.03    -0.16  -0.10  -0.14     0.03   0.03   0.06
   7   6    -0.03   0.02  -0.01    -0.13   0.15   0.01     0.09  -0.02   0.06
   8   1    -0.01  -0.07   0.12    -0.01  -0.22  -0.08     0.02   0.10   0.00
   9   1     0.07   0.03  -0.11     0.20   0.13   0.11    -0.08  -0.04  -0.00
  10   6     0.15  -0.07  -0.02    -0.10   0.02   0.01    -0.11  -0.12   0.13
  11   1     0.03   0.28  -0.09    -0.01  -0.13  -0.13    -0.03  -0.04   0.13
  12   1    -0.25  -0.12   0.07     0.08   0.05   0.21    -0.01  -0.03   0.01
  13   1    -0.02  -0.32   0.00     0.01   0.19   0.13     0.00  -0.04  -0.08
  14   6     0.11  -0.13  -0.03     0.15  -0.19  -0.09     0.03   0.18   0.02
  15   1    -0.27  -0.12   0.02    -0.23  -0.13  -0.07     0.09   0.07   0.08
  16   1     0.03   0.27  -0.09     0.04   0.23   0.04     0.00  -0.04   0.11
  17   6    -0.02  -0.06   0.03     0.15  -0.06  -0.07     0.09   0.20  -0.30
  18   1     0.13  -0.06   0.03    -0.11   0.00  -0.06    -0.29   0.06  -0.19
  19   1    -0.01   0.14  -0.05     0.04  -0.03   0.16     0.02  -0.14   0.18
  20   6    -0.16   0.03   0.04    -0.15   0.09  -0.02    -0.00  -0.17   0.09
  21   1     0.22  -0.04   0.09     0.07   0.09   0.10     0.11   0.14   0.23
  22   1    -0.03   0.19  -0.20    -0.03   0.04  -0.15     0.02  -0.10  -0.20
  23   6    -0.02   0.02   0.05    -0.05   0.05   0.10    -0.09  -0.15   0.02
  24   1     0.01  -0.02  -0.15     0.01  -0.05  -0.17     0.00   0.01  -0.26
  25   1     0.06   0.03   0.03     0.10   0.05   0.07     0.04   0.02  -0.24
  26   1     0.10   0.05   0.09     0.11   0.05   0.11     0.16   0.21   0.28
                     19                     20                     21
                        a                      a                      a 
 Frequencies --   916.1470               943.1209               975.3321
 Red. masses --     5.2026                 5.9385                 2.7581
 Frc consts  --     0.0000                 0.0000                 0.0000
 IR Inten    --     0.0571                 0.0320                 0.0304
 Raman Activ --     0.0000                 0.0000                 0.0000
 Depolar     --     0.0000                 0.0000                 0.0000
 Atom AN      X      Y      Z        X      Y      Z        X      Y      Z
   1   6    -0.08   0.05   0.06    -0.07  -0.07   0.36    -0.12   0.07  -0.04
   2   1     0.11   0.06   0.12     0.04  -0.00  -0.23     0.12   0.08   0.19
   3   1     0.10   0.02   0.07     0.20   0.37   0.40     0.07  -0.07  -0.01
   4   1     0.00  -0.12  -0.17     0.01   0.03  -0.22    -0.01  -0.17  -0.18
   5   6    -0.06  -0.05   0.02    -0.15  -0.22   0.08     0.09  -0.04   0.01
   6   1     0.00   0.00   0.15    -0.03  -0.06  -0.13    -0.08  -0.03   0.27
   7   6     0.17  -0.03  -0.04     0.19   0.29  -0.23     0.06  -0.02   0.05
   8   1     0.04   0.17  -0.07     0.05   0.06  -0.11     0.03   0.05  -0.28
   9   1    -0.13  -0.07   0.04     0.06   0.08  -0.12    -0.06  -0.02   0.29
  10   6    -0.08   0.09  -0.08    -0.04  -0.10  -0.14    -0.19   0.06   0.02
  11   1    -0.02  -0.12   0.11    -0.01  -0.01  -0.02    -0.03  -0.18  -0.14
  12   1     0.12   0.07  -0.11    -0.02  -0.03  -0.01     0.12   0.08   0.17
  13   1    -0.00  -0.05  -0.17    -0.03  -0.07  -0.11     0.03   0.08  -0.26
  14   6    -0.11  -0.12  -0.12    -0.01   0.00   0.03     0.20  -0.09  -0.02
  15   1     0.03  -0.02  -0.21    -0.00   0.00   0.07    -0.16  -0.08  -0.04
  16   1    -0.03  -0.09   0.11    -0.00  -0.00   0.02     0.05   0.19   0.06
  17   6     0.26  -0.21   0.12    -0.03   0.09   0.05    -0.09   0.03  -0.05
  18   1    -0.02  -0.02   0.02     0.00   0.02   0.01     0.02  -0.05  -0.04
  19   1     0.07  -0.13   0.09    -0.01   0.05   0.02    -0.03   0.20   0.08
  20   6    -0.15   0.21  -0.10     0.04  -0.05   0.04    -0.04  -0.02   0.02
  21   1    -0.04   0.05  -0.03     0.02  -0.02   0.01     0.04  -0.04  -0.01
  22   1    -0.03  -0.08  -0.14     0.01   0.02   0.03    -0.02   0.19   0.11
  23   6    -0.08   0.21   0.13     0.02  -0.07  -0.05     0.11  -0.08  -0.05
  24   1     0.00  -0.15  -0.17    -0.00   0.03   0.04     0.00   0.11   0.19
  25   1     0.18   0.09   0.35    -0.05  -0.03  -0.10    -0.12  -0.05  -0.16
  26   1     0.08  -0.08  -0.02    -0.02   0.02   0.00    -0.08   0.02  -0.04
                     22                     23                     24
                        a                      a                      a 
 Frequencies --  1003.4275              1042.6648              1076.3429
 Red. masses --     6.1273                 2.9969                10.1624
 Frc consts  --     0.0000                 0.0000                 0.0000
 IR Inten    --     0.0574                 0.0661                 0.0578
 Raman Activ --     0.0000                 0.0000                 0.0000
 Depolar     --     0.0000                 0.0000                 0.0000
 Atom AN      X      Y      Z        X      Y      Z        X      Y      Z
   1   6     0.02   0.10   0.06     0.08   0.01   0.00     0.12   0.21   0.27
   2   1     0.03   0.04   0.12    -0.05  -0.02  -0.03     0.03   0.06   0.13
   3   1    -0.00  -0.05  -0.03    -0.05  -0.02  -0.04     0.01   0.02   0.04
   4   1     0.01  -0.02   0.03     0.01   0.07   0.12     0.03   0.06   0.13
   5   6    -0.02  -0.10  -0.04    -0.11   0.00  -0.01    -0.11  -0.21  -0.32
   6   1    -0.05  -0.03   0.10     0.06   0.03  -0.08    -0.04  -0.06  -0.08
   7   6    -0.05  -0.07  -0.15     0.08  -0.05  -0.02    -0.10  -0.18  -0.27
   8   1    -0.01  -0.03  -0.07     0.00   0.08   0.23    -0.03  -0.06  -0.06
   9   1    -0.01  -0.01   0.10    -0.05  -0.05  -0.17    -0.03  -0.05  -0.05
  10   6     0.19   0.29  -0.20    -0.02   0.10  -0.07     0.11   0.21   0.24
  11   1     0.06   0.06  -0.15    -0.02  -0.04   0.28     0.03   0.05   0.09
  12   1     0.06   0.09   0.03     0.07   0.04  -0.23     0.04   0.06   0.08
  13   1    -0.01   0.01  -0.02    -0.03  -0.08   0.15    -0.03  -0.06  -0.09
  14   6    -0.20  -0.29   0.09    -0.05  -0.20  -0.10     0.08   0.07   0.25
  15   1    -0.07  -0.08   0.03    -0.06  -0.07  -0.31     0.00   0.01   0.04
  16   1    -0.05  -0.05  -0.13    -0.02   0.01   0.31     0.02   0.05   0.12
  17   6     0.00   0.12   0.22     0.13   0.01   0.07    -0.09  -0.10  -0.24
  18   1     0.02   0.31   0.27    -0.03   0.03   0.01    -0.03  -0.02  -0.06
  19   1     0.00  -0.12  -0.08     0.03   0.21   0.26    -0.02  -0.01  -0.05
  20   6     0.12   0.04   0.01    -0.13   0.09  -0.03    -0.10  -0.11  -0.26
  21   1    -0.08   0.22   0.13     0.02   0.05   0.04    -0.02  -0.04  -0.07
  22   1     0.03  -0.17  -0.00    -0.04   0.22   0.07    -0.03  -0.00  -0.07
  23   6    -0.07  -0.18  -0.03     0.12  -0.15  -0.00     0.10   0.09   0.24
  24   1    -0.01   0.03  -0.13     0.01   0.14   0.16     0.02   0.05   0.11
  25   1    -0.02  -0.02  -0.22    -0.13  -0.06  -0.25     0.00   0.02   0.05
  26   1     0.07   0.14   0.17    -0.05   0.09   0.06     0.01   0.04   0.07
                     25                     26                     27
                        a                      a                      a 
 Frequencies --  1087.8917              1099.7328              1117.9232
 Red. masses --     8.7722                 7.5083                 7.2007
 Frc consts  --     0.0000                 0.0000                 0.0000
 IR Inten    --     0.0470                 0.0557                 0.0819
 Raman Activ --     0.0000                 0.0000                 0.0000
 Depolar     --     0.0000                 0.0000                 0.0000
 Atom AN      X      Y      Z        X      Y      Z        X      Y      Z
   1   6    -0.11  -0.19  -0.15    -0.13  -0.21  -0.05     0.02   0.05   0.21
   2   1    -0.01  -0.05  -0.14    -0.01  -0.05  -0.18     0.03   0.02  -0.04
   3   1     0.02   0.04   0.03     0.05   0.10   0.10     0.07   0.12   0.14
   4   1    -0.02  -0.04  -0.14    -0.02  -0.03  -0.17     0.01   0.05  -0.04
   5   6     0.11   0.21   0.21     0.11   0.20   0.17     0.12   0.15  -0.40
   6   1     0.04   0.05   0.02     0.03   0.05   0.03     0.05   0.03  -0.33
   7   6     0.02   0.04   0.13    -0.13  -0.25  -0.24    -0.11  -0.14   0.43
   8   1     0.01   0.02  -0.01    -0.03  -0.06  -0.23    -0.03  -0.03   0.15
   9   1     0.01   0.01  -0.02    -0.03  -0.08  -0.26    -0.04  -0.04   0.12
  10   6    -0.01  -0.01  -0.16     0.05   0.15   0.41    -0.10  -0.12  -0.02
  11   1     0.00  -0.02  -0.13     0.01   0.03   0.11    -0.02  -0.05  -0.13
  12   1     0.02  -0.00  -0.17     0.02   0.04   0.09    -0.01  -0.04  -0.15
  13   1     0.03   0.05   0.03     0.03   0.04   0.04     0.04   0.02  -0.32
  14   6     0.02   0.01   0.15     0.11   0.10  -0.05     0.07   0.05  -0.03
  15   1    -0.01  -0.00   0.01     0.02   0.02  -0.22     0.01   0.01  -0.12
  16   1     0.00   0.01   0.03     0.03   0.04  -0.11     0.02   0.02  -0.06
  17   6    -0.09  -0.03  -0.03    -0.00  -0.18   0.01    -0.01  -0.16   0.05
  18   1     0.01   0.14   0.12     0.06  -0.00   0.06     0.06   0.02   0.08
  19   1    -0.03   0.02  -0.06     0.00  -0.07  -0.10     0.00  -0.07  -0.10
  20   6    -0.11  -0.16  -0.47     0.00   0.20   0.03    -0.00   0.18  -0.01
  21   1    -0.06  -0.03  -0.13    -0.06   0.18   0.09    -0.06   0.14   0.04
  22   1    -0.03  -0.10  -0.13    -0.01   0.05   0.08    -0.01   0.03   0.06
  23   6     0.15   0.03   0.41    -0.03  -0.09  -0.07    -0.03  -0.09  -0.02
  24   1     0.03   0.11   0.14    -0.01   0.02  -0.04    -0.01   0.03  -0.04
  25   1    -0.01   0.01  -0.04    -0.02  -0.02  -0.11    -0.02  -0.01  -0.10
  26   1     0.05   0.13   0.21     0.00   0.04   0.04     0.01   0.06   0.07
                     28                     29                     30
                        a                      a                      a 
 Frequencies --  1130.4801              1148.5715              1181.5048
 Red. masses --     7.9957                 8.0360                 6.9362
 Frc consts  --     0.0000                 0.0000                 0.0000
 IR Inten    --     0.0452                 0.0202                 0.0154
 Raman Activ --     0.0000                 0.0000                 0.0000
 Depolar     --     0.0000                 0.0000                 0.0000
 Atom AN      X      Y      Z        X      Y      Z        X      Y      Z
   1   6     0.03   0.07   0.05     0.08   0.13  -0.07     0.09  -0.00  -0.01
   2   1     0.01   0.02   0.05    -0.01   0.02   0.14    -0.05  -0.03  -0.03
   3   1    -0.00  -0.01  -0.01    -0.06  -0.12  -0.13    -0.05  -0.01  -0.04
   4   1     0.01   0.01   0.04     0.01  -0.00   0.14     0.01   0.06   0.10
   5   6    -0.02  -0.07  -0.10    -0.15  -0.25   0.09    -0.17   0.00   0.01
   6   1    -0.02  -0.02  -0.03    -0.05  -0.06   0.11     0.06   0.04  -0.02
   7   6    -0.04  -0.02  -0.00     0.17   0.28  -0.06     0.20  -0.02   0.01
   8   1    -0.01  -0.04  -0.05     0.04   0.05  -0.03     0.04   0.13   0.03
   9   1    -0.00  -0.00   0.00     0.05   0.07  -0.00    -0.08  -0.06  -0.11
  10   6    -0.10  -0.15   0.26    -0.13  -0.27   0.00    -0.26   0.04   0.04
  11   1    -0.03  -0.02   0.15    -0.03  -0.02  -0.03    -0.06  -0.16   0.06
  12   1    -0.06  -0.05   0.16    -0.06  -0.07   0.05     0.11   0.07  -0.11
  13   1    -0.01  -0.01  -0.04    -0.04  -0.05   0.09    -0.04  -0.10   0.05
  14   6    -0.04   0.07  -0.48     0.11   0.26   0.00     0.33  -0.06   0.02
  15   1     0.03   0.03  -0.15     0.08   0.08  -0.04    -0.12  -0.07  -0.17
  16   1    -0.00  -0.03  -0.36     0.03  -0.00  -0.09     0.08   0.21   0.04
  17   6     0.08   0.27   0.32     0.00  -0.33   0.08    -0.35   0.07  -0.04
  18   1     0.03   0.10   0.10     0.11  -0.07   0.06     0.08   0.12   0.13
  19   1     0.02   0.18   0.13     0.01  -0.15  -0.19    -0.09   0.13  -0.15
  20   6     0.01  -0.16  -0.18    -0.08   0.28  -0.15     0.32  -0.10   0.02
  21   1     0.01  -0.10  -0.09    -0.11   0.20   0.03    -0.08   0.01  -0.04
  22   1     0.01  -0.16  -0.11    -0.03   0.06   0.06     0.08  -0.18   0.08
  23   6     0.08  -0.00   0.15     0.02  -0.13   0.06    -0.18   0.05   0.01
  24   1     0.02   0.04   0.07     0.00   0.08   0.00    -0.02  -0.11  -0.20
  25   1    -0.00  -0.00  -0.01    -0.04  -0.02  -0.17     0.10   0.05   0.10
  26   1     0.02   0.04   0.07     0.02   0.11   0.13     0.09  -0.02   0.04
                     31                     32                     33
                        a                      a                      a 
 Frequencies --  1215.6777              1241.6810              1258.8013
 Red. masses --     5.3461                 4.1005                 3.4730
 Frc consts  --     0.0000                 0.0000                 0.0000
 IR Inten    --     0.0391                 0.0341                 0.0227
 Raman Activ --     0.0000                 0.0000                 0.0000
 Depolar     --     0.0000                 0.0000                 0.0000
 Atom AN      X      Y      Z        X      Y      Z        X      Y      Z
   1   6    -0.23   0.16  -0.02     0.06  -0.11   0.03     0.17   0.01  -0.03
   2   1     0.14   0.11   0.20    -0.04  -0.05  -0.11    -0.08  -0.04  -0.03
   3   1     0.10  -0.07   0.00    -0.02   0.07   0.04    -0.08  -0.04  -0.08
   4   1    -0.03  -0.19  -0.19     0.01   0.08   0.03     0.02   0.07   0.14
   5   6     0.32  -0.22   0.03    -0.05   0.14  -0.06    -0.14  -0.06   0.11
   6   1    -0.17  -0.15  -0.10     0.05   0.07   0.17     0.02   0.01   0.08
   7   6    -0.23   0.16  -0.02    -0.04  -0.07  -0.08    -0.06   0.12   0.15
   8   1    -0.05  -0.16   0.11    -0.01  -0.01   0.01     0.01  -0.06  -0.39
   9   1     0.14   0.10  -0.12    -0.02  -0.00   0.26     0.06   0.04  -0.18
  10   6     0.12  -0.09   0.02     0.10   0.00  -0.08     0.16  -0.06   0.19
  11   1     0.01   0.09   0.18     0.02   0.05   0.10     0.05   0.09  -0.32
  12   1    -0.06  -0.07  -0.20    -0.04  -0.01   0.21    -0.06  -0.07  -0.26
  13   1     0.06   0.22   0.09    -0.01  -0.05  -0.05    -0.01  -0.07  -0.36
  14   6     0.03   0.00  -0.00    -0.10   0.02  -0.09    -0.14  -0.03   0.08
  15   1     0.00  -0.00  -0.18     0.03   0.02   0.18     0.05   0.02  -0.29
  16   1     0.00   0.01   0.19    -0.03  -0.06   0.15    -0.03  -0.06   0.04
  17   6    -0.12   0.01  -0.02    -0.02  -0.06   0.07     0.07   0.06  -0.09
  18   1     0.03   0.00   0.01     0.06  -0.28  -0.16    -0.07   0.07  -0.01
  19   1    -0.03   0.14   0.02    -0.01   0.23   0.13     0.01   0.05   0.10
  20   6     0.18   0.01  -0.02     0.23   0.15  -0.18     0.05  -0.03   0.03
  21   1    -0.06  -0.03  -0.08    -0.14  -0.08  -0.23     0.01  -0.15  -0.11
  22   1     0.04  -0.02   0.11     0.04   0.07   0.26     0.00   0.14   0.13
  23   6    -0.13  -0.02   0.03    -0.20  -0.12   0.13    -0.09  -0.01   0.02
  24   1    -0.02  -0.04  -0.14    -0.03  -0.02  -0.22    -0.01  -0.03  -0.08
  25   1     0.06   0.03   0.01     0.09   0.04  -0.07     0.03   0.01   0.01
  26   1     0.07   0.02   0.07     0.13   0.10   0.21     0.04   0.01   0.04
                     34                     35                     36
                        a                      a                      a 
 Frequencies --  1267.6941              1285.6547              1287.6864
 Red. masses --     2.9732                 2.1203                 2.1928
 Frc consts  --     0.0000                 0.0000                 0.0000
 IR Inten    --     0.0191                 0.0153                 0.0157
 Raman Activ --     0.0000                 0.0000                 0.0000
 Depolar     --     0.0000                 0.0000                 0.0000
 Atom AN      X      Y      Z        X      Y      Z        X      Y      Z
   1   6    -0.09   0.11  -0.03    -0.03   0.05  -0.02     0.03  -0.07   0.02
   2   1     0.05   0.05   0.10     0.02   0.02   0.04    -0.01  -0.03  -0.05
   3   1     0.02  -0.05  -0.03     0.02  -0.04  -0.02     0.01   0.03   0.03
   4   1    -0.01  -0.08  -0.06    -0.00  -0.04  -0.01     0.01   0.04   0.02
   5   6    -0.03  -0.04   0.06     0.09  -0.09   0.06     0.10  -0.03  -0.06
   6   1     0.02  -0.02  -0.40    -0.04  -0.05  -0.04    -0.06  -0.02   0.37
   7   6     0.12  -0.07   0.07     0.11  -0.08   0.06    -0.08   0.05  -0.09
   8   1     0.04   0.07  -0.19     0.01   0.08   0.33    -0.04  -0.04   0.40
   9   1    -0.06  -0.05  -0.09    -0.03  -0.07  -0.52     0.04   0.03  -0.18
  10   6    -0.11   0.16   0.09    -0.09   0.12   0.02    -0.13   0.04   0.00
  11   1    -0.02  -0.09  -0.05     0.01  -0.09  -0.49    -0.03  -0.07   0.09
  12   1     0.10   0.07  -0.23     0.03   0.07   0.37     0.05   0.04   0.02
  13   1    -0.02   0.00   0.26     0.02   0.05  -0.08     0.03   0.04  -0.20
  14   6     0.00  -0.13   0.04    -0.14   0.02  -0.00     0.10  -0.02  -0.02
  15   1    -0.05  -0.05   0.29     0.03   0.03  -0.01    -0.02  -0.02   0.05
  16   1     0.01   0.03  -0.35    -0.04  -0.07   0.05     0.03   0.06  -0.12
  17   6     0.15   0.06   0.01    -0.00  -0.00   0.05     0.12   0.10  -0.03
  18   1    -0.03  -0.14  -0.14     0.00  -0.17  -0.11    -0.06   0.20   0.09
  19   1     0.04  -0.10   0.04    -0.01   0.15   0.09     0.04  -0.33  -0.15
  20   6    -0.01   0.12  -0.02     0.06   0.00  -0.08    -0.09   0.00   0.04
  21   1    -0.00  -0.23  -0.22    -0.04   0.09   0.03     0.06  -0.33  -0.22
  22   1    -0.01   0.14   0.13     0.01  -0.06   0.02    -0.04   0.26   0.16
  23   6    -0.07  -0.09   0.07    -0.01   0.00   0.02    -0.06  -0.05   0.05
  24   1    -0.01   0.02  -0.09    -0.00   0.00  -0.01    -0.01  -0.01  -0.07
  25   1     0.01   0.00  -0.07     0.02   0.01   0.00     0.00  -0.00  -0.03
  26   1     0.04   0.06   0.10     0.01   0.01   0.01     0.03   0.03   0.07
                     37                     38                     39
                        a                      a                      a 
 Frequencies --  1292.3701              1312.2649              1324.8769
 Red. masses --     2.4499                 3.3229                 3.7224
 Frc consts  --     0.0000                 0.0000                 0.0000
 IR Inten    --     0.0320                 0.0536                 0.0300
 Raman Activ --     0.0000                 0.0000                 0.0000
 Depolar     --     0.0000                 0.0000                 0.0000
 Atom AN      X      Y      Z        X      Y      Z        X      Y      Z
   1   6     0.09  -0.02  -0.01    -0.03  -0.01   0.01    -0.06  -0.09   0.04
   2   1    -0.04  -0.03  -0.04     0.01   0.01   0.00     0.05   0.01  -0.01
   3   1    -0.03  -0.01  -0.03     0.01   0.02   0.03     0.06   0.10   0.11
   4   1     0.01   0.04   0.06    -0.01   0.00  -0.01    -0.01   0.05  -0.01
   5   6     0.03  -0.05   0.06    -0.01   0.02  -0.06     0.04   0.02  -0.29
   6   1    -0.04  -0.01   0.22     0.01   0.01   0.00    -0.02   0.02   0.35
   7   6    -0.15   0.09   0.04     0.05  -0.02  -0.05     0.06   0.08  -0.13
   8   1    -0.03  -0.08   0.04     0.01   0.02   0.00     0.00  -0.00   0.20
   9   1     0.08   0.05  -0.21    -0.03  -0.01   0.12    -0.02   0.02   0.18
  10   6    -0.05   0.10   0.00     0.06  -0.04   0.06    -0.06  -0.05   0.18
  11   1    -0.02  -0.02   0.21     0.03   0.03  -0.18     0.00  -0.00  -0.26
  12   1     0.06   0.03  -0.33    -0.03  -0.02   0.07     0.03  -0.01  -0.27
  13   1     0.02   0.01  -0.35    -0.01  -0.01   0.15    -0.01   0.02   0.34
  14   6     0.07  -0.13   0.04     0.02  -0.05   0.02    -0.07  -0.02   0.25
  15   1    -0.09  -0.06   0.24    -0.03  -0.02  -0.34     0.02   0.00  -0.23
  16   1     0.02   0.05  -0.18    -0.00   0.00   0.24    -0.01  -0.02  -0.37
  17   6    -0.06   0.02   0.08    -0.09   0.24   0.09     0.05  -0.02  -0.08
  18   1     0.06  -0.35  -0.21     0.00  -0.21  -0.17    -0.04  -0.08  -0.10
  19   1    -0.02   0.08   0.02    -0.01  -0.25  -0.22     0.00   0.19   0.16
  20   6     0.01   0.17   0.02    -0.05   0.26   0.15     0.04  -0.03  -0.01
  21   1    -0.04   0.11   0.04     0.02  -0.30  -0.25    -0.01   0.08   0.06
  22   1     0.03  -0.32  -0.23     0.01  -0.32  -0.25     0.01  -0.00   0.02
  23   6     0.09  -0.04  -0.01     0.08  -0.10   0.06    -0.02   0.02  -0.02
  24   1     0.02   0.04   0.05     0.01   0.05  -0.02    -0.00  -0.01   0.00
  25   1    -0.04  -0.02  -0.08    -0.07  -0.03  -0.16     0.02   0.01   0.03
  26   1    -0.04   0.00  -0.03    -0.05   0.02   0.01     0.01  -0.01  -0.01
                     40                     41                     42
                        a                      a                      a 
 Frequencies --  1367.8270              1374.9841              1379.6343
 Red. masses --     4.7066                 5.1319                 5.6209
 Frc consts  --     0.0000                 0.0000                 0.0000
 IR Inten    --     0.0731                 0.0089                 0.0111
 Raman Activ --     0.0000                 0.0000                 0.0000
 Depolar     --     0.0000                 0.0000                 0.0000
 Atom AN      X      Y      Z        X      Y      Z        X      Y      Z
   1   6     0.04   0.06  -0.03    -0.00  -0.01   0.01     0.01   0.01  -0.04
   2   1    -0.05  -0.01  -0.02     0.01   0.00  -0.00    -0.02  -0.01   0.01
   3   1    -0.04  -0.08  -0.08     0.00   0.01   0.01    -0.01  -0.01  -0.02
   4   1     0.01  -0.06  -0.02    -0.00   0.01  -0.00     0.00  -0.02   0.02
   5   6    -0.00   0.04   0.34    -0.00  -0.00  -0.05     0.00   0.03   0.22
   6   1    -0.00  -0.02  -0.32     0.00   0.00   0.04    -0.01  -0.01  -0.17
   7   6    -0.01  -0.05  -0.24    -0.02   0.01   0.07     0.02   0.00  -0.36
   8   1    -0.02   0.03   0.24     0.00  -0.01  -0.08    -0.01   0.00   0.30
   9   1     0.01   0.01   0.25     0.01   0.00  -0.03    -0.02   0.01   0.31
  10   6    -0.02  -0.05  -0.15     0.02  -0.00  -0.04    -0.02  -0.00   0.38
  11   1    -0.02   0.02   0.15     0.00   0.02   0.06     0.02   0.00  -0.32
  12   1     0.01   0.01   0.16     0.00  -0.00  -0.02     0.03  -0.01  -0.34
  13   1     0.02  -0.03  -0.31    -0.00   0.00   0.04     0.01  -0.02  -0.17
  14   6    -0.01   0.01   0.35     0.03  -0.10   0.02     0.00  -0.03  -0.27
  15   1    -0.01  -0.00  -0.36    -0.03  -0.03  -0.15     0.01  -0.00   0.22
  16   1     0.01  -0.02  -0.35     0.01   0.03   0.04    -0.01   0.03   0.23
  17   6     0.03   0.05  -0.06    -0.01   0.35   0.28    -0.01   0.02   0.09
  18   1    -0.03  -0.08  -0.09    -0.02  -0.34  -0.25     0.00  -0.00   0.02
  19   1     0.01   0.04   0.05     0.01  -0.30  -0.26    -0.00  -0.04  -0.07
  20   6     0.02  -0.01  -0.00     0.00  -0.29  -0.26    -0.01  -0.05  -0.04
  21   1     0.01  -0.02  -0.01     0.00   0.26   0.22    -0.01   0.08   0.07
  22   1     0.00   0.01   0.02    -0.02   0.25   0.22    -0.00   0.03   0.02
  23   6    -0.01   0.00   0.01    -0.04   0.07  -0.01     0.00   0.01  -0.02
  24   1    -0.00  -0.00  -0.01    -0.01  -0.03   0.05    -0.00  -0.00   0.03
  25   1     0.01   0.01  -0.00     0.04   0.02   0.09     0.00  -0.00   0.03
  26   1     0.01  -0.01   0.00     0.05  -0.00   0.01     0.01   0.01   0.00
                     43                     44                     45
                        a                      a                      a 
 Frequencies --  1416.3018              1416.6312              1491.6317
 Red. masses --     3.1806                 3.1655                 1.9031
 Frc consts  --     0.0000                 0.0000                 0.0000
 IR Inten    --     0.0294                 0.0382                 0.0397
 Raman Activ --     0.0000                 0.0000                 0.0000
 Depolar     --     0.0000                 0.0000                 0.0000
 Atom AN      X      Y      Z        X      Y      Z        X      Y      Z
   1   6    -0.10  -0.19  -0.36    -0.03  -0.05  -0.10     0.00   0.00   0.00
   2   1     0.18   0.07   0.45     0.05   0.02   0.13    -0.00  -0.00  -0.01
   3   1     0.21   0.35   0.26     0.06   0.10   0.07    -0.00  -0.01  -0.00
   4   1    -0.06   0.23   0.44    -0.02   0.06   0.12     0.00  -0.00  -0.00
   5   6    -0.01  -0.00   0.08    -0.00  -0.00   0.02    -0.01  -0.02   0.01
   6   1     0.05   0.02  -0.08     0.01   0.00  -0.02     0.05   0.02  -0.01
   7   6    -0.01  -0.02  -0.00    -0.00  -0.01   0.00     0.04   0.06  -0.01
   8   1    -0.00  -0.01  -0.01    -0.00  -0.00  -0.00     0.01  -0.17   0.02
   9   1    -0.00  -0.01  -0.01    -0.00  -0.00  -0.01    -0.16  -0.06   0.01
  10   6     0.01   0.01  -0.03     0.00   0.00  -0.02     0.02   0.02  -0.02
  11   1    -0.00   0.00   0.03     0.00  -0.00   0.01     0.00  -0.08   0.00
  12   1    -0.00   0.00   0.03    -0.00   0.00   0.02    -0.08  -0.03   0.01
  13   1     0.00   0.04  -0.08     0.00   0.01  -0.02    -0.00   0.06  -0.01
  14   6    -0.00   0.00   0.01     0.01  -0.00   0.01    -0.12  -0.14   0.01
  15   1     0.00   0.00  -0.01    -0.01  -0.00  -0.02     0.43   0.13  -0.01
  16   1     0.00  -0.00  -0.01     0.00  -0.01   0.01     0.00   0.45  -0.00
  17   6     0.00   0.00   0.00    -0.01   0.00  -0.02    -0.12   0.08  -0.12
  18   1     0.00  -0.00  -0.00    -0.01  -0.00  -0.01     0.42  -0.08   0.10
  19   1     0.00  -0.00   0.01    -0.00   0.00  -0.01    -0.00  -0.26   0.35
  20   6     0.00  -0.02  -0.01    -0.01   0.06   0.04    -0.03   0.02  -0.05
  21   1    -0.01   0.02   0.01     0.05  -0.07  -0.03     0.11   0.00   0.05
  22   1    -0.00   0.02   0.00     0.00  -0.09  -0.01    -0.01  -0.07   0.09
  23   6     0.03   0.05   0.10    -0.10  -0.17  -0.37     0.01  -0.02   0.01
  24   1     0.02  -0.06  -0.13    -0.05   0.22   0.44     0.00   0.08  -0.04
  25   1    -0.06  -0.00  -0.12     0.22   0.01   0.44     0.05   0.01   0.02
  26   1    -0.05  -0.09  -0.09     0.19   0.32   0.32    -0.06   0.01  -0.02
                     46                     47                     48
                        a                      a                      a 
 Frequencies --  1492.9145              1496.6560              1498.3018
 Red. masses --     1.9080                 1.9631                 1.8695
 Frc consts  --     0.0000                 0.0000                 0.0000
 IR Inten    --     0.0224                 0.0351                 0.0519
 Raman Activ --     0.0000                 0.0000                 0.0000
 Depolar     --     0.0000                 0.0000                 0.0000
 Atom AN      X      Y      Z        X      Y      Z        X      Y      Z
   1   6     0.01   0.01  -0.00     0.00   0.00  -0.00    -0.03  -0.05   0.00
   2   1    -0.06  -0.02   0.00    -0.01  -0.00   0.01     0.17   0.06  -0.00
   3   1     0.01   0.01   0.01     0.01   0.01   0.01    -0.03  -0.04  -0.04
   4   1     0.00  -0.06   0.00    -0.00  -0.01   0.01    -0.01   0.18  -0.02
   5   6    -0.04  -0.06  -0.00     0.02   0.03  -0.01     0.11   0.18   0.02
   6   1     0.15   0.06   0.01    -0.09  -0.03   0.01    -0.48  -0.18  -0.03
   7   6    -0.01  -0.02  -0.03    -0.05  -0.09  -0.00     0.06   0.09   0.02
   8   1    -0.00   0.06   0.01    -0.01   0.25  -0.01     0.02  -0.22  -0.01
   9   1     0.06   0.03   0.02     0.23   0.08   0.01    -0.20  -0.07  -0.03
  10   6     0.11   0.17   0.01    -0.02  -0.02   0.04    -0.01  -0.03  -0.01
  11   1     0.03  -0.47   0.02    -0.00   0.06  -0.04    -0.00   0.08   0.00
  12   1    -0.44  -0.16  -0.05     0.06   0.02  -0.02     0.08   0.03   0.00
  13   1    -0.01   0.16  -0.00     0.00  -0.09   0.01     0.03  -0.51   0.01
  14   6     0.04   0.05   0.02     0.09   0.14  -0.02     0.01   0.01  -0.00
  15   1    -0.11  -0.03  -0.01    -0.36  -0.10  -0.01    -0.03  -0.01   0.01
  16   1     0.00  -0.11  -0.01    -0.00  -0.38   0.01    -0.00  -0.03   0.01
  17   6     0.02  -0.03   0.00    -0.12   0.11  -0.13     0.01  -0.02   0.01
  18   1    -0.08   0.02  -0.02     0.46  -0.07   0.11    -0.06   0.02  -0.01
  19   1    -0.00   0.06  -0.07     0.00  -0.29   0.38    -0.00   0.05  -0.05
  20   6    -0.10   0.08  -0.12    -0.02  -0.02  -0.04    -0.07   0.07  -0.09
  21   1     0.40  -0.06   0.13     0.05   0.01   0.03     0.30  -0.05   0.10
  22   1    -0.02  -0.26   0.33    -0.00  -0.01   0.07    -0.01  -0.20   0.25
  23   6     0.02   0.01   0.02    -0.00  -0.01   0.01     0.01  -0.00   0.01
  24   1     0.00   0.01  -0.06     0.00   0.07  -0.03     0.00   0.02  -0.06
  25   1    -0.02  -0.01   0.01     0.05   0.02   0.02    -0.01  -0.00   0.01
  26   1    -0.06   0.01  -0.02    -0.05  -0.00  -0.02    -0.06   0.01  -0.02
                     49                     50                     51
                        a                      a                      a 
 Frequencies --  1500.5104              1503.4460              1505.0503
 Red. masses --     1.9645                 1.7966                 1.5319
 Frc consts  --     0.0000                 0.0000                 0.0000
 IR Inten    --     0.0459                 0.0323                 0.0257
 Raman Activ --     0.0000                 0.0000                 0.0000
 Depolar     --     0.0000                 0.0000                 0.0000
 Atom AN      X      Y      Z        X      Y      Z        X      Y      Z
   1   6     0.01   0.02  -0.02     0.00   0.01   0.01     0.18  -0.12   0.01
   2   1    -0.07  -0.03   0.02    -0.02  -0.01  -0.02    -0.17  -0.06   0.43
   3   1     0.03   0.04   0.03    -0.00  -0.01  -0.01    -0.60   0.39  -0.05
   4   1     0.00  -0.08   0.03     0.00  -0.03  -0.01     0.04   0.15  -0.44
   5   6     0.02   0.03  -0.03    -0.08  -0.12   0.00     0.04  -0.03   0.00
   6   1    -0.08  -0.03   0.02     0.34   0.12   0.00    -0.01  -0.01  -0.02
   7   6    -0.12  -0.18   0.02     0.03   0.05   0.00    -0.00  -0.00  -0.00
   8   1    -0.03   0.51  -0.03     0.01  -0.19   0.00    -0.00   0.01   0.02
   9   1     0.48   0.17   0.01    -0.18  -0.07  -0.01     0.01   0.00  -0.02
  10   6    -0.05  -0.08   0.00    -0.09  -0.14   0.00    -0.00   0.00  -0.00
  11   1    -0.01   0.19  -0.01    -0.02   0.42  -0.01    -0.00   0.00  -0.00
  12   1     0.18   0.06   0.01     0.40   0.14   0.02     0.01   0.00   0.00
  13   1     0.00  -0.09   0.02    -0.02   0.36  -0.02     0.01   0.02   0.02
  14   6    -0.07  -0.10  -0.01     0.02   0.03  -0.02    -0.00  -0.00  -0.00
  15   1     0.28   0.08   0.01    -0.10  -0.03   0.01     0.00   0.00   0.00
  16   1     0.00   0.29   0.00    -0.00  -0.11   0.02    -0.00   0.00   0.00
  17   6     0.02  -0.04   0.03     0.00  -0.01  -0.00    -0.00  -0.00   0.00
  18   1    -0.11   0.02  -0.02    -0.03   0.02   0.00    -0.00   0.00   0.00
  19   1    -0.00   0.08  -0.09    -0.00   0.03  -0.02    -0.00   0.00  -0.00
  20   6    -0.05   0.05  -0.05    -0.07   0.06  -0.09    -0.00   0.00  -0.00
  21   1     0.20  -0.04   0.06     0.29  -0.05   0.09     0.00  -0.00   0.00
  22   1    -0.01  -0.14   0.16    -0.01  -0.19   0.24    -0.00  -0.00   0.00
  23   6     0.01  -0.01   0.01     0.02  -0.02   0.02     0.00  -0.00   0.00
  24   1     0.00   0.04  -0.04     0.00   0.07  -0.08     0.00   0.01  -0.00
  25   1     0.00  -0.00   0.01     0.01   0.00   0.03     0.00   0.00   0.00
  26   1    -0.05   0.01  -0.02    -0.10   0.02  -0.03    -0.00   0.00  -0.00
                     52                     53                     54
                        a                      a                      a 
 Frequencies --  1505.7911              1508.2160              1508.4861
 Red. masses --     1.5346                 1.6533                 1.6428
 Frc consts  --     0.0000                 0.0000                 0.0000
 IR Inten    --     0.0272                 0.0199                 0.0238
 Raman Activ --     0.0000                 0.0000                 0.0000
 Depolar     --     0.0000                 0.0000                 0.0000
 Atom AN      X      Y      Z        X      Y      Z        X      Y      Z
   1   6     0.00   0.00  -0.00    -0.10  -0.14   0.11    -0.00  -0.01   0.00
   2   1    -0.01  -0.00   0.00     0.57   0.21  -0.11     0.02   0.01  -0.00
   3   1    -0.00   0.00   0.00    -0.13  -0.23  -0.17    -0.01  -0.01  -0.01
   4   1     0.00  -0.01   0.00    -0.02   0.59  -0.15    -0.00   0.02  -0.01
   5   6     0.00  -0.00  -0.00    -0.06  -0.08   0.05    -0.01  -0.01   0.00
   6   1     0.00   0.00   0.00     0.14   0.04  -0.02     0.02   0.01  -0.00
   7   6    -0.00  -0.00   0.00    -0.03  -0.04  -0.02    -0.00  -0.00  -0.00
   8   1    -0.00   0.01  -0.00    -0.01   0.14   0.00    -0.00   0.01  -0.00
   9   1     0.01   0.00  -0.00     0.13   0.05   0.01     0.01   0.00   0.00
  10   6    -0.00  -0.00  -0.00     0.00   0.01   0.01    -0.01  -0.02   0.00
  11   1    -0.00   0.01  -0.00     0.00  -0.03  -0.00    -0.00   0.05  -0.00
  12   1     0.01   0.00   0.00    -0.03  -0.01  -0.01     0.04   0.02   0.00
  13   1    -0.00   0.00   0.00    -0.01   0.14  -0.04    -0.00   0.02  -0.00
  14   6    -0.01  -0.00   0.00    -0.01  -0.01   0.00    -0.01   0.00  -0.00
  15   1     0.00   0.00  -0.00     0.03   0.01  -0.00     0.02   0.01   0.01
  16   1    -0.00   0.00  -0.01     0.00   0.03  -0.00    -0.00   0.01   0.00
  17   6    -0.02   0.01  -0.01     0.00   0.00   0.00    -0.02  -0.01  -0.03
  18   1     0.05  -0.03  -0.00    -0.00  -0.00  -0.00     0.08  -0.01   0.03
  19   1     0.00  -0.02   0.05    -0.00  -0.00  -0.00     0.00  -0.04   0.07
  20   6     0.04   0.01  -0.02     0.01  -0.01   0.00    -0.06   0.09  -0.04
  21   1    -0.02  -0.00  -0.03    -0.02   0.00  -0.00     0.13  -0.04   0.02
  22   1     0.01   0.01   0.02     0.00   0.01  -0.01    -0.01  -0.11   0.08
  23   6     0.18   0.08  -0.09     0.01  -0.01   0.00    -0.11   0.17  -0.05
  24   1     0.04  -0.45  -0.13     0.00   0.01  -0.01    -0.02  -0.48   0.39
  25   1    -0.59  -0.26   0.29     0.00  -0.00   0.01    -0.13   0.00  -0.30
  26   1    -0.16   0.39   0.21    -0.02   0.01  -0.00     0.58  -0.22   0.10
                     55                     56                     57
                        a                      a                      a 
 Frequencies --  2954.2682              2955.7822              2956.0435
 Red. masses --     1.8865                 1.9346                 1.9086
 Frc consts  --     0.0000                 0.0000                 0.0000
 IR Inten    --     0.0792                 0.1104                 0.1063
 Raman Activ --     0.0000                 0.0000                 0.0000
 Depolar     --     0.0000                 0.0000                 0.0000
 Atom AN      X      Y      Z        X      Y      Z        X      Y      Z
   1   6    -0.00   0.00  -0.00    -0.00   0.00  -0.00     0.00  -0.00   0.00
   2   1     0.00  -0.01  -0.00     0.00  -0.01  -0.00    -0.00   0.01   0.00
   3   1    -0.00   0.00  -0.00    -0.00   0.00  -0.00     0.00  -0.00  -0.00
   4   1     0.01   0.00   0.00     0.01   0.00   0.00    -0.02  -0.00  -0.00
   5   6     0.07  -0.05   0.01     0.06  -0.04   0.00    -0.07   0.05  -0.01
   6   1    -0.07   0.21  -0.01    -0.06   0.17  -0.01     0.07  -0.19   0.01
   7   6    -0.15   0.09  -0.01    -0.09   0.06  -0.01     0.09  -0.07   0.01
   8   1     0.42   0.03   0.02     0.22   0.02   0.01    -0.23  -0.02  -0.01
   9   1     0.13  -0.38   0.02     0.09  -0.24   0.01    -0.10   0.28  -0.02
  10   6     0.13  -0.05   0.01    -0.03   0.02  -0.00     0.02  -0.00   0.00
  11   1    -0.41  -0.02  -0.02     0.09   0.01   0.00    -0.04  -0.00  -0.00
  12   1    -0.07   0.24  -0.01     0.03  -0.09   0.01    -0.00   0.02  -0.00
  13   1    -0.21  -0.02  -0.01    -0.18  -0.01  -0.01     0.19   0.02   0.01
  14   6    -0.10   0.10  -0.00     0.16  -0.12   0.01    -0.04   0.08   0.00
  15   1     0.10  -0.36   0.00    -0.12   0.45  -0.00     0.10  -0.31   0.00
  16   1     0.26   0.01   0.01    -0.47  -0.00  -0.01     0.03   0.01   0.00
  17   6    -0.03  -0.02   0.04    -0.13  -0.05   0.06    -0.15  -0.09   0.12
  18   1     0.05   0.10  -0.14     0.08   0.17  -0.23     0.17   0.34  -0.46
  19   1     0.03  -0.00   0.00     0.41   0.01   0.01     0.36  -0.00   0.02
  20   6     0.03   0.01  -0.01     0.03   0.02  -0.02     0.08   0.03  -0.03
  21   1    -0.02  -0.03   0.04    -0.03  -0.06   0.08    -0.05  -0.10   0.12
  22   1    -0.08  -0.00  -0.01    -0.11   0.00  -0.01    -0.25  -0.00  -0.02
  23   6    -0.00   0.00   0.00    -0.00   0.00  -0.00    -0.00   0.00  -0.00
  24   1     0.01   0.00   0.00     0.00   0.00   0.00     0.02   0.00   0.00
  25   1     0.00  -0.00  -0.00     0.00  -0.00  -0.00     0.00  -0.01  -0.00
  26   1     0.00   0.00  -0.00     0.00   0.00  -0.00     0.00   0.00  -0.01
                     58                     59                     60
                        a                      a                      a 
 Frequencies --  2964.5383              2968.7508              2972.1284
 Red. masses --     1.9084                 1.7359                 1.8339
 Frc consts  --     0.0000                 0.0000                 0.0000
 IR Inten    --     0.0437                 0.1644                 0.2747
 Raman Activ --     0.0000                 0.0000                 0.0000
 Depolar     --     0.0000                 0.0000                 0.0000
 Atom AN      X      Y      Z        X      Y      Z        X      Y      Z
   1   6     0.02  -0.01   0.00     0.00  -0.00   0.00    -0.02   0.01  -0.00
   2   1    -0.02   0.05  -0.00    -0.00   0.01  -0.00     0.02  -0.06   0.00
   3   1     0.00  -0.00   0.00     0.00  -0.00   0.00    -0.01  -0.00   0.01
   4   1    -0.06  -0.01  -0.00    -0.01  -0.00  -0.00     0.05   0.00   0.00
   5   6    -0.17   0.10  -0.01    -0.02   0.02  -0.00     0.11  -0.11   0.01
   6   1     0.13  -0.39   0.02     0.03  -0.07   0.00    -0.15   0.41  -0.02
   7   6    -0.04   0.03  -0.00    -0.03  -0.01  -0.00     0.13  -0.08   0.01
   8   1     0.09   0.01   0.01     0.14   0.00   0.01    -0.33  -0.02  -0.02
   9   1     0.04  -0.10   0.00    -0.02   0.05  -0.00    -0.10   0.30  -0.01
  10   6     0.17  -0.04   0.01     0.01   0.00  -0.00     0.12   0.02   0.01
  11   1    -0.56  -0.02  -0.03    -0.04  -0.00  -0.00    -0.48  -0.01  -0.03
  12   1    -0.04   0.16  -0.01     0.00   0.00  -0.00     0.05  -0.09   0.01
  13   1     0.48   0.03   0.03     0.04   0.00   0.00    -0.21  -0.02  -0.01
  14   6     0.04  -0.08  -0.00     0.07   0.05   0.00    -0.04  -0.06  -0.00
  15   1    -0.10   0.32  -0.00     0.07  -0.19   0.00    -0.09   0.25  -0.00
  16   1    -0.04  -0.01  -0.00    -0.33   0.02  -0.01     0.23  -0.02   0.01
  17   6    -0.02   0.02  -0.03     0.01  -0.05   0.07    -0.06  -0.01   0.01
  18   1    -0.05  -0.08   0.10     0.12   0.21  -0.28     0.00   0.02  -0.03
  19   1     0.14   0.01  -0.01    -0.16  -0.01   0.01     0.20   0.01  -0.00
  20   6    -0.01   0.00  -0.00    -0.21  -0.04   0.03    -0.07  -0.01   0.01
  21   1    -0.00   0.00  -0.00     0.04   0.11  -0.13     0.02   0.04  -0.05
  22   1     0.05   0.00   0.00     0.74   0.02   0.04     0.25   0.01   0.02
  23   6     0.00  -0.00   0.00     0.02   0.01  -0.01     0.01   0.00  -0.00
  24   1    -0.01  -0.00  -0.00    -0.07  -0.00  -0.01    -0.03  -0.00  -0.00
  25   1    -0.00   0.00   0.00     0.00   0.01  -0.00    -0.00   0.01   0.00
  26   1     0.00   0.00  -0.00    -0.02  -0.03   0.04    -0.00  -0.01   0.01
                     61                     62                     63
                        a                      a                      a 
 Frequencies --  2972.6264              2976.2743              2978.8218
 Red. masses --     1.4845                 1.4879                 1.5680
 Frc consts  --     0.0000                 0.0000                 0.0000
 IR Inten    --     0.1093                 0.1594                 0.1730
 Raman Activ --     0.0000                 0.0000                 0.0000
 Depolar     --     0.0000                 0.0000                 0.0000
 Atom AN      X      Y      Z        X      Y      Z        X      Y      Z
   1   6     0.00  -0.01   0.00    -0.00   0.00  -0.00    -0.01  -0.02   0.01
   2   1    -0.01   0.02  -0.00     0.00  -0.00  -0.00    -0.02   0.05   0.00
   3   1     0.00  -0.00  -0.00    -0.00  -0.01   0.01     0.02   0.02  -0.04
   4   1    -0.01  -0.00  -0.00    -0.00   0.00  -0.00     0.05  -0.00   0.01
   5   6    -0.06  -0.03  -0.00    -0.03  -0.06  -0.00     0.08   0.13  -0.00
   6   1    -0.06   0.12  -0.01    -0.10   0.23  -0.01     0.21  -0.48   0.03
   7   6     0.06   0.14  -0.00     0.05   0.06   0.00     0.03   0.04  -0.00
   8   1    -0.45   0.00  -0.02    -0.31  -0.00  -0.02    -0.15   0.00  -0.01
   9   1     0.22  -0.53   0.03     0.11  -0.25   0.01     0.07  -0.15   0.01
  10   6    -0.04   0.00  -0.00     0.00  -0.02   0.00    -0.02  -0.05   0.00
  11   1     0.15   0.00   0.01     0.05  -0.00   0.00     0.16  -0.00   0.01
  12   1    -0.01   0.00   0.00    -0.05   0.12  -0.01    -0.08   0.20  -0.01
  13   1     0.27   0.01   0.01     0.23  -0.00   0.01    -0.51  -0.00  -0.03
  14   6    -0.06  -0.05   0.00     0.04   0.10  -0.00    -0.07  -0.02  -0.00
  15   1    -0.07   0.20   0.00     0.13  -0.37   0.00    -0.03   0.07   0.00
  16   1     0.29  -0.02   0.01    -0.29   0.02  -0.01     0.28  -0.01   0.01
  17   6     0.03  -0.05   0.07    -0.10   0.05  -0.07    -0.09   0.00  -0.01
  18   1     0.11   0.19  -0.26    -0.13  -0.21   0.29    -0.03  -0.03   0.04
  19   1    -0.23  -0.02   0.01     0.48   0.03  -0.02     0.35   0.02  -0.01
  20   6    -0.02   0.00  -0.01    -0.05  -0.02   0.02    -0.07  -0.01   0.01
  21   1    -0.02  -0.03   0.03     0.05   0.09  -0.11     0.01   0.04  -0.04
  22   1     0.11   0.00   0.00     0.11   0.00   0.01     0.24   0.01   0.01
  23   6     0.00   0.00  -0.00     0.01  -0.00   0.00     0.01  -0.00  -0.00
  24   1     0.00  -0.00  -0.00    -0.04  -0.00  -0.00    -0.05  -0.00  -0.00
  25   1     0.00  -0.00  -0.00    -0.00   0.01   0.00    -0.00   0.02   0.00
  26   1    -0.01  -0.01   0.01     0.00   0.00   0.00    -0.00  -0.01   0.01
                     64                     65                     66
                        a                      a                      a 
 Frequencies --  2981.3702              2987.4399              2993.6478
 Red. masses --     1.8411                 1.5377                 1.6170
 Frc consts  --     0.0000                 0.0000                 0.0000
 IR Inten    --     0.5162                 0.3044                 0.3968
 Raman Activ --     0.0000                 0.0000                 0.0000
 Depolar     --     0.0000                 0.0000                 0.0000
 Atom AN      X      Y      Z        X      Y      Z        X      Y      Z
   1   6     0.02   0.00  -0.01     0.01   0.01  -0.01     0.00   0.01  -0.01
   2   1     0.00   0.00  -0.00     0.02  -0.03   0.00     0.01  -0.03   0.00
   3   1    -0.01  -0.01   0.02    -0.01  -0.02   0.03    -0.01  -0.01   0.02
   4   1    -0.06  -0.00  -0.00    -0.04   0.00  -0.00    -0.01   0.00  -0.00
   5   6    -0.07  -0.01  -0.00    -0.04  -0.06   0.00    -0.01  -0.03   0.00
   6   1    -0.03   0.04  -0.00    -0.09   0.20  -0.01    -0.05   0.13  -0.01
   7   6    -0.10  -0.00  -0.00    -0.04  -0.06  -0.00     0.00  -0.05   0.00
   8   1     0.38   0.01   0.02     0.20  -0.00   0.01     0.06  -0.00   0.00
   9   1    -0.02   0.00  -0.00    -0.08   0.19  -0.01    -0.06   0.15  -0.01
  10   6    -0.11   0.12  -0.01    -0.03  -0.11   0.00     0.01  -0.15   0.01
  11   1     0.20   0.02   0.01     0.29  -0.01   0.02     0.18  -0.02   0.01
  12   1     0.16  -0.44   0.03    -0.17   0.41  -0.02    -0.22   0.54  -0.03
  13   1     0.29   0.01   0.02     0.22  -0.00   0.01     0.09  -0.00   0.00
  14   6    -0.12   0.00  -0.00    -0.04  -0.03  -0.00     0.00  -0.05   0.00
  15   1    -0.02   0.02  -0.00    -0.04   0.11  -0.00    -0.05   0.16   0.00
  16   1     0.44  -0.02   0.01     0.19  -0.01   0.00     0.04  -0.01   0.00
  17   6    -0.10  -0.01   0.00    -0.03   0.01  -0.02    -0.01  -0.03   0.03
  18   1    -0.01   0.00  -0.01    -0.03  -0.04   0.06     0.05   0.09  -0.12
  19   1     0.34   0.01  -0.00     0.13   0.01  -0.00    -0.02  -0.00   0.00
  20   6    -0.06  -0.05   0.06    -0.02   0.09  -0.11    -0.01  -0.10   0.12
  21   1     0.10   0.18  -0.22    -0.21  -0.33   0.40     0.23   0.38  -0.45
  22   1     0.11  -0.00   0.01     0.29   0.02  -0.00    -0.19  -0.02   0.01
  23   6     0.02   0.01  -0.01     0.01  -0.02   0.01     0.01   0.03  -0.02
  24   1    -0.05   0.00  -0.00    -0.03  -0.00  -0.00     0.00   0.01  -0.00
  25   1     0.00   0.00  -0.00    -0.02   0.05   0.01     0.03  -0.06  -0.01
  26   1    -0.01  -0.03   0.03     0.03   0.04  -0.05    -0.05  -0.07   0.09
                     67                     68                     69
                        a                      a                      a 
 Frequencies --  3027.9629              3029.1234              3030.5644
 Red. masses --     1.9540                 1.9578                 1.9061
 Frc consts  --     0.0000                 0.0000                 0.0000
 IR Inten    --     0.2896                 0.2766                 0.2984
 Raman Activ --     0.0000                 0.0000                 0.0000
 Depolar     --     0.0000                 0.0000                 0.0000
 Atom AN      X      Y      Z        X      Y      Z        X      Y      Z
   1   6    -0.01  -0.00   0.00     0.25  -0.15   0.02    -0.03  -0.00   0.01
   2   1    -0.00   0.00   0.00    -0.22   0.61  -0.03     0.00  -0.02   0.00
   3   1     0.01   0.01  -0.02     0.03  -0.03   0.01     0.01   0.02  -0.03
   4   1     0.04   0.00   0.00    -0.68  -0.05  -0.04     0.08   0.00   0.01
   5   6    -0.00   0.00  -0.00     0.04  -0.02   0.00    -0.00   0.00  -0.00
   6   1     0.00  -0.00   0.00    -0.03   0.07  -0.01     0.00  -0.00   0.00
   7   6     0.00   0.00   0.00     0.01  -0.01   0.00    -0.00   0.00  -0.00
   8   1    -0.00   0.00  -0.00    -0.03  -0.00  -0.00     0.01   0.00   0.00
   9   1     0.00  -0.00   0.00    -0.01   0.02  -0.00     0.00  -0.00   0.00
  10   6     0.00   0.00  -0.00     0.00  -0.00   0.00    -0.00   0.00  -0.00
  11   1    -0.01   0.00  -0.00    -0.01  -0.00  -0.00     0.01   0.00   0.00
  12   1     0.01  -0.02   0.00    -0.00   0.01  -0.00     0.00  -0.01   0.00
  13   1     0.00   0.00   0.00    -0.08  -0.00  -0.00     0.01   0.00   0.00
  14   6     0.00   0.00  -0.00     0.00  -0.00   0.00    -0.00   0.00  -0.00
  15   1     0.00  -0.01   0.00    -0.00   0.00  -0.00     0.00  -0.01   0.00
  16   1    -0.01   0.00  -0.00    -0.01   0.00   0.00     0.01   0.00   0.00
  17   6     0.01   0.01  -0.01     0.00   0.00  -0.00    -0.01   0.01  -0.01
  18   1    -0.01  -0.02   0.03    -0.00  -0.00   0.00    -0.02  -0.03   0.03
  19   1    -0.02   0.00  -0.00    -0.00  -0.00  -0.00     0.05   0.00  -0.00
  20   6     0.04   0.03  -0.03     0.00   0.00  -0.00    -0.02   0.02  -0.02
  21   1    -0.05  -0.08   0.10    -0.00  -0.00   0.01    -0.04  -0.05   0.06
  22   1    -0.07   0.00  -0.00     0.00   0.00  -0.00     0.09   0.00   0.00
  23   6     0.22   0.13  -0.13    -0.01   0.02  -0.01    -0.18   0.21  -0.07
  24   1    -0.56   0.01  -0.06     0.03   0.00   0.00     0.60   0.05   0.03
  25   1     0.05  -0.02  -0.02     0.02  -0.04  -0.01     0.21  -0.56  -0.07
  26   1    -0.26  -0.44   0.55    -0.02  -0.03   0.04    -0.18  -0.21   0.30
                     70                     71                     72
                        a                      a                      a 
 Frequencies --  3031.4674              3035.8491              3036.6612
 Red. masses --     1.9160                 1.2905                 1.2765
 Frc consts  --     0.0000                 0.0000                 0.0000
 IR Inten    --     0.2921                 0.2101                 0.1572
 Raman Activ --     0.0000                 0.0000                 0.0000
 Depolar     --     0.0000                 0.0000                 0.0000
 Atom AN      X      Y      Z        X      Y      Z        X      Y      Z
   1   6     0.14   0.21  -0.14     0.00   0.01   0.02    -0.01  -0.03  -0.15
   2   1     0.22  -0.46   0.00     0.03  -0.07   0.01    -0.18   0.44  -0.04
   3   1    -0.23  -0.28   0.52     0.04   0.05  -0.08    -0.27  -0.34   0.57
   4   1    -0.47   0.01  -0.05    -0.07  -0.00  -0.00     0.46   0.02   0.01
   5   6     0.02   0.03  -0.00     0.00   0.00   0.00    -0.00  -0.00  -0.01
   6   1     0.03  -0.07   0.01     0.00  -0.00   0.00    -0.00   0.00  -0.00
   7   6     0.01   0.01  -0.00     0.00   0.00  -0.00    -0.00  -0.00   0.00
   8   1    -0.04   0.00  -0.00    -0.00   0.00  -0.00     0.01  -0.00   0.00
   9   1     0.02  -0.04   0.00     0.00  -0.00   0.00    -0.00   0.01  -0.00
  10   6     0.00   0.00  -0.00     0.00  -0.00   0.00     0.00   0.00  -0.00
  11   1    -0.01   0.00  -0.00    -0.00  -0.00  -0.00    -0.00  -0.00   0.00
  12   1     0.01  -0.02   0.00    -0.00   0.00  -0.00    -0.00   0.00   0.00
  13   1    -0.07   0.00  -0.00    -0.00   0.00  -0.00     0.00  -0.00  -0.00
  14   6     0.00   0.00  -0.00     0.00  -0.00  -0.00    -0.00  -0.00   0.00
  15   1     0.00  -0.01   0.00    -0.00   0.00   0.00    -0.00   0.00  -0.00
  16   1    -0.01   0.00   0.00     0.00  -0.00  -0.00     0.00  -0.00   0.00
  17   6     0.00   0.00  -0.00     0.00  -0.00   0.00     0.00  -0.00   0.00
  18   1    -0.00  -0.00   0.00     0.00   0.00  -0.00     0.00   0.00  -0.00
  19   1    -0.00   0.00  -0.00    -0.01  -0.00   0.00    -0.00  -0.00   0.00
  20   6     0.00   0.00  -0.00     0.00   0.00   0.00     0.00   0.00   0.00
  21   1    -0.00  -0.01   0.01    -0.00  -0.00   0.00     0.00   0.00  -0.00
  22   1     0.00   0.00  -0.00    -0.01  -0.00   0.00    -0.00  -0.00   0.00
  23   6    -0.00   0.01  -0.01     0.02   0.12   0.10     0.00   0.02   0.02
  24   1     0.02   0.00  -0.00    -0.49   0.00  -0.02    -0.07   0.00  -0.00
  25   1     0.01  -0.02  -0.00     0.27  -0.68  -0.07     0.04  -0.10  -0.01
  26   1    -0.02  -0.03   0.04     0.15   0.25  -0.29     0.02   0.04  -0.05
