 Entering Gaussian System
 *********************************************
 Gaussian 98:
 frequency output generated by the xtb code
 *********************************************
                         Standard orientation:
 --------------------------------------------------------------------
  Center     Atomic     Atomic              Coordinates (Angstroms)
  Number     Number      Type              X           Y           Z
 --------------------------------------------------------------------
    1          6             0       -2.723604   -0.289671   -0.069580
    2          1             0       -2.333026   -1.304683   -0.040072
    3          1             0       -2.333923    0.202295   -0.957865
    4          1             0       -3.806963   -0.343468   -0.154204
    5          6             0       -2.323520    0.473083    1.187401
    6          1             0       -2.707744    1.494232    1.129680
    7          6             0       -2.856923   -0.195186    2.452382
    8          1             0       -3.946790   -0.252536    2.396834
    9          1             0       -2.475912   -1.218053    2.506450
   10          6             0       -2.456112    0.561314    3.716642
   11          1             0       -1.366067    0.609298    3.777557
   12          1             0       -2.830834    1.584232    3.650552
   13          1             0       -1.234060    0.533241    1.243833
   14          6             0       -3.001522   -0.108926    4.976040
   15          1             0       -2.687075   -1.155906    4.977688
   16          1             0       -4.093816   -0.094486    4.948510
   17          6             0       -2.520686    0.545292    6.271555
   18          1             0       -2.835937   -0.076754    7.113439
   19          1             0       -1.428362    0.575352    6.276296
   20          6             0       -3.063733    1.957345    6.480911
   21          1             0       -2.690660    2.616446    5.695410
   22          1             0       -4.153899    1.937537    6.410753
   23          6             0       -2.654561    2.519230    7.837169
   24          1             0       -1.570509    2.551833    7.924402
   25          1             0       -3.039489    3.528205    7.967071
   26          1             0       -3.042706    1.897809    8.641674
 --------------------------------------------------------------------
     1 basis functions        1 primitive gaussians
     1 alpha electrons        1 beta electrons
 
 Harmonic frequencies (cm**-1), IR intensities (KM/Mole),
 Raman scattering activities (A**4/amu), Raman depolarization ratios,
 reduced masses (AMU), force constants (mDyne/A) and normal coordinates:
                      1                      2                      3
                        a                      a                      a 
 Frequencies --    43.9393                61.8638                69.8080
 Red. masses --    99.0000                99.0000                99.0000
 Frc consts  --    99.0000                99.0000                99.0000
 IR Inten    --    99.0000                99.0000                99.0000
 Raman Activ --     0.0000                 0.0000                 0.0000
 Depolar     --     0.0000                 0.0000                 0.0000
 Atom AN      X      Y      Z        X      Y      Z        X      Y      Z
   1   6     0.39  -0.22   0.01    -0.09   0.09   0.03    -0.03  -0.34  -0.01
   2   1     0.29   0.00   0.05     0.07   0.06  -0.03    -0.05  -0.11   0.06
   3   1     0.06  -0.02   0.00    -0.10   0.08   0.01     0.02  -0.17  -0.03
   4   1     0.13  -0.25  -0.03    -0.02  -0.07   0.05    -0.01  -0.06  -0.01
   5   6    -0.20   0.14  -0.02    -0.18   0.12   0.04     0.03  -0.13  -0.15
   6   1    -0.22  -0.02  -0.05    -0.14   0.00   0.04     0.05  -0.03  -0.11
   7   6    -0.00  -0.02  -0.02     0.16  -0.13   0.05    -0.12   0.17  -0.05
   8   1     0.01  -0.13  -0.02     0.05  -0.13   0.04    -0.04   0.11  -0.02
   9   1     0.12   0.04   0.01     0.13  -0.00  -0.01    -0.09   0.03   0.03
  10   6    -0.35   0.18  -0.03     0.05  -0.08   0.05    -0.00   0.23  -0.12
  11   1    -0.11   0.16   0.01     0.01   0.00   0.03     0.00   0.06  -0.06
  12   1    -0.20   0.01  -0.03    -0.01  -0.03   0.00     0.00   0.07  -0.03
  13   1    -0.07   0.22   0.04    -0.05   0.13  -0.02     0.01  -0.08  -0.03
  14   6    -0.19   0.05  -0.03     0.02  -0.08   0.04     0.08   0.21  -0.09
  15   1    -0.04   0.02  -0.04     0.01  -0.02   0.02     0.02   0.06  -0.05
  16   1    -0.05  -0.00   0.03     0.01  -0.03  -0.00     0.02   0.07  -0.01
  17   6    -0.07  -0.04  -0.03    -0.05  -0.06   0.06     0.16   0.12  -0.07
  18   1    -0.02  -0.01  -0.01    -0.13   0.04   0.02     0.06   0.01  -0.03
  19   1    -0.02  -0.04  -0.02    -0.01  -0.12   0.09     0.05   0.04  -0.04
  20   6     0.08   0.00   0.06     0.37   0.15  -0.26     0.15   0.08   0.10
  21   1     0.02  -0.00   0.01     0.32   0.00  -0.01     0.12   0.08   0.11
  22   1     0.02   0.03   0.05     0.12   0.17  -0.27     0.05   0.04  -0.06
  23   6     0.28  -0.08   0.04    -0.25  -0.02  -0.01    -0.25  -0.27   0.37
  24   1     0.08  -0.05  -0.02    -0.08  -0.16   0.20    -0.08  -0.11   0.21
  25   1     0.11  -0.01   0.03     0.04   0.05  -0.08    -0.06  -0.08   0.14
  26   1     0.09  -0.02   0.02    -0.31   0.05  -0.07    -0.16  -0.13   0.03
                      4                      5                      6
                        a                      a                      a 
 Frequencies --   107.9002               122.0033               233.7075
 Red. masses --    99.0000                99.0000                99.0000
 Frc consts  --    99.0000                99.0000                99.0000
 IR Inten    --    99.0000                99.0000                99.0000
 Raman Activ --     0.0000                 0.0000                 0.0000
 Depolar     --     0.0000                 0.0000                 0.0000
 Atom AN      X      Y      Z        X      Y      Z        X      Y      Z
   1   6    -0.22  -0.12  -0.01    -0.22   0.13  -0.02    -0.04   0.02   0.02
   2   1     0.04   0.00  -0.04    -0.21  -0.02  -0.05     0.37   0.15  -0.27
   3   1    -0.20  -0.00  -0.04    -0.02   0.01  -0.00    -0.47   0.29  -0.03
   4   1    -0.07  -0.14   0.11    -0.07   0.20   0.03    -0.02  -0.38   0.32
   5   6    -0.06   0.03  -0.14     0.28  -0.19   0.01     0.23  -0.13   0.02
   6   1    -0.10  -0.02  -0.02     0.16  -0.02   0.06     0.16  -0.00   0.01
   7   6     0.41  -0.09  -0.01     0.31  -0.20   0.02    -0.10   0.09  -0.00
   8   1     0.12  -0.12   0.05     0.10  -0.21  -0.06    -0.03   0.12  -0.04
   9   1     0.20   0.00  -0.02     0.23  -0.00   0.09    -0.12  -0.01   0.03
  10   6     0.35  -0.01  -0.04    -0.36   0.24  -0.03    -0.08   0.06   0.00
  11   1     0.10  -0.07   0.06    -0.12   0.29   0.03    -0.02   0.03  -0.01
  12   1     0.17   0.02  -0.07    -0.30  -0.01  -0.06    -0.03   0.01   0.01
  13   1    -0.02   0.09  -0.13     0.09  -0.15  -0.05     0.07  -0.14   0.01
  14   6    -0.14   0.22  -0.13    -0.05   0.02  -0.01    -0.00  -0.01   0.00
  15   1    -0.14   0.03  -0.01     0.06   0.03  -0.03     0.02   0.00  -0.01
  16   1    -0.04   0.17  -0.11    -0.02  -0.07   0.03    -0.00  -0.02   0.01
  17   6    -0.24   0.04   0.00    -0.03   0.01  -0.02     0.03  -0.01  -0.01
  18   1    -0.10  -0.02  -0.03    -0.01   0.00  -0.01     0.03  -0.01  -0.00
  19   1    -0.07  -0.01   0.03    -0.01  -0.00  -0.01     0.01   0.01  -0.02
  20   6    -0.17   0.04   0.17     0.02   0.03   0.01    -0.02  -0.03  -0.00
  21   1    -0.08   0.02   0.04     0.02   0.01   0.01    -0.01  -0.01  -0.00
  22   1    -0.05   0.02   0.10     0.01   0.02   0.00    -0.00  -0.02   0.01
  23   6     0.10  -0.08   0.14     0.05  -0.05   0.04    -0.00  -0.00  -0.02
  24   1     0.03  -0.02  -0.02     0.02  -0.04   0.01    -0.00  -0.05   0.01
  25   1     0.03  -0.03   0.09     0.04  -0.01   0.02     0.05   0.02  -0.04
  26   1     0.08  -0.05   0.05    -0.00  -0.01   0.00    -0.05   0.04   0.00
                      7                      8                      9
                        a                      a                      a 
 Frequencies --   160.9202               229.4802               260.7434
 Red. masses --    99.0000                99.0000                99.0000
 Frc consts  --    99.0000                99.0000                99.0000
 IR Inten    --    99.0000                99.0000                99.0000
 Raman Activ --     0.0000                 0.0000                 0.0000
 Depolar     --     0.0000                 0.0000                 0.0000
 Atom AN      X      Y      Z        X      Y      Z        X      Y      Z
   1   6     0.13   0.24  -0.22     0.03   0.02  -0.12    -0.05  -0.03   0.24
   2   1     0.09   0.08  -0.16    -0.02  -0.01  -0.03    -0.04  -0.02   0.12
   3   1     0.04   0.18  -0.00     0.06   0.00  -0.01    -0.01  -0.07   0.04
   4   1     0.04   0.03  -0.09     0.01   0.04  -0.08    -0.02   0.02   0.09
   5   6    -0.06  -0.12   0.06    -0.05  -0.04  -0.05     0.06   0.12   0.11
   6   1    -0.04  -0.04   0.09    -0.02  -0.01  -0.01    -0.00   0.03   0.03
   7   6    -0.06  -0.38  -0.06    -0.04  -0.05  -0.04     0.11   0.05   0.06
   8   1    -0.02  -0.14  -0.02    -0.01  -0.01  -0.00     0.03  -0.02   0.01
   9   1     0.01  -0.10  -0.03    -0.01  -0.02  -0.02     0.07   0.03   0.01
  10   6    -0.07  -0.31  -0.09     0.03  -0.04  -0.05    -0.02   0.03   0.07
  11   1    -0.02  -0.13  -0.02     0.01   0.00  -0.04    -0.01  -0.04   0.08
  12   1     0.03  -0.07  -0.07    -0.00  -0.02  -0.01     0.05   0.02  -0.01
  13   1    -0.02  -0.01   0.05    -0.02  -0.00  -0.01     0.02   0.05   0.01
  14   6    -0.16   0.10   0.09     0.16  -0.04   0.02    -0.32   0.14  -0.02
  15   1    -0.13   0.00   0.08     0.12   0.01   0.03    -0.28  -0.01  -0.06
  16   1    -0.04   0.11   0.06     0.05  -0.08  -0.01    -0.09   0.23   0.05
  17   6     0.20   0.27  -0.12    -0.04   0.11   0.03     0.35  -0.08  -0.20
  18   1     0.18   0.07   0.01     0.03   0.00   0.01     0.28  -0.05  -0.01
  19   1     0.06   0.13  -0.15    -0.01   0.10   0.01     0.10   0.05  -0.24
  20   6     0.04   0.18   0.10    -0.23   0.02   0.16     0.01  -0.24  -0.08
  21   1    -0.02   0.10   0.06    -0.13   0.01   0.02    -0.08  -0.05  -0.04
  22   1     0.01   0.02   0.03    -0.07  -0.02   0.12     0.00  -0.16   0.00
  23   6    -0.05  -0.03   0.22     0.09   0.02   0.07    -0.11  -0.00  -0.16
  24   1    -0.02   0.04   0.07     0.03  -0.48   0.13    -0.03  -0.13   0.04
  25   1    -0.07  -0.04   0.13     0.47   0.20  -0.16     0.08   0.06  -0.17
  26   1     0.02  -0.08   0.02    -0.34   0.29   0.06    -0.17   0.12  -0.02
                     10                     11                     12
                        a                      a                      a 
 Frequencies --   279.5975               347.6943               423.0647
 Red. masses --    99.0000                99.0000                99.0000
 Frc consts  --    99.0000                99.0000                99.0000
 IR Inten    --    99.0000                99.0000                99.0000
 Raman Activ --     0.0000                 0.0000                 0.0000
 Depolar     --     0.0000                 0.0000                 0.0000
 Atom AN      X      Y      Z        X      Y      Z        X      Y      Z
   1   6     0.02  -0.00  -0.29     0.08   0.13  -0.03     0.00  -0.05  -0.42
   2   1     0.01   0.00  -0.11     0.03   0.04  -0.10     0.01  -0.01  -0.18
   3   1     0.02   0.03  -0.06     0.09   0.15   0.08     0.04   0.06  -0.06
   4   1     0.01  -0.00  -0.11     0.03   0.04  -0.10     0.01  -0.01  -0.18
   5   6    -0.03  -0.09  -0.19    -0.20  -0.28   0.28    -0.08  -0.15  -0.22
   6   1    -0.01  -0.02  -0.06    -0.05  -0.07   0.12    -0.02  -0.04  -0.10
   7   6     0.01  -0.02  -0.10    -0.14  -0.17   0.30     0.12   0.21   0.17
   8   1     0.00  -0.02  -0.03    -0.04  -0.05   0.15     0.03   0.05   0.08
   9   1     0.01   0.00  -0.01    -0.03  -0.04   0.16     0.03   0.06   0.08
  10   6    -0.03   0.05  -0.06     0.17   0.32  -0.11     0.03   0.11   0.36
  11   1    -0.01   0.02  -0.01     0.05   0.08  -0.07     0.01   0.02   0.15
  12   1    -0.01   0.01  -0.04     0.05   0.08  -0.09     0.02   0.04   0.13
  13   1    -0.01  -0.02  -0.06    -0.06  -0.08   0.12    -0.02  -0.04  -0.10
  14   6    -0.05   0.11   0.03     0.14   0.32  -0.19    -0.11  -0.00   0.32
  15   1    -0.10   0.01  -0.04    -0.01   0.08  -0.12    -0.08  -0.02   0.07
  16   1    -0.02   0.11   0.03     0.04   0.13  -0.08    -0.03   0.06   0.11
  17   6     0.09  -0.29   0.25    -0.01  -0.09  -0.00     0.09   0.06   0.16
  18   1    -0.03  -0.12   0.02    -0.08  -0.06  -0.05     0.08   0.06   0.10
  19   1     0.03  -0.14   0.09    -0.00  -0.05   0.08     0.02   0.05  -0.00
  20   6     0.18  -0.24   0.29    -0.04  -0.13  -0.09    -0.07   0.01  -0.17
  21   1     0.05  -0.12   0.04    -0.01  -0.05  -0.04    -0.02  -0.00  -0.05
  22   1     0.05  -0.09   0.06    -0.01  -0.05  -0.03    -0.02  -0.02  -0.05
  23   6    -0.12   0.41   0.13    -0.01  -0.11  -0.14     0.00  -0.19  -0.17
  24   1    -0.04   0.20   0.10    -0.00  -0.04  -0.05     0.00  -0.09  -0.08
  25   1    -0.10   0.12  -0.15     0.01  -0.03  -0.04     0.03  -0.05   0.03
  26   1    -0.05   0.23   0.11    -0.00  -0.03  -0.04     0.01  -0.10  -0.08
                     13                     14                     15
                        a                      a                      a 
 Frequencies --   521.4723               767.4964               779.2608
 Red. masses --    99.0000                99.0000                99.0000
 Frc consts  --    99.0000                99.0000                99.0000
 IR Inten    --    99.0000                99.0000                99.0000
 Raman Activ --     0.0000                 0.0000                 0.0000
 Depolar     --     0.0000                 0.0000                 0.0000
 Atom AN      X      Y      Z        X      Y      Z        X      Y      Z
   1   6    -0.01   0.00   0.10    -0.00   0.01   0.00    -0.02   0.00  -0.01
   2   1    -0.01  -0.00   0.09     0.05   0.02   0.05     0.09   0.04   0.08
   3   1    -0.04  -0.07  -0.03     0.01  -0.02  -0.01     0.04  -0.02   0.01
   4   1    -0.01  -0.00   0.09     0.01  -0.06  -0.03     0.01  -0.11  -0.10
   5   6     0.10   0.14  -0.06    -0.05   0.05  -0.01    -0.11   0.06  -0.00
   6   1     0.03   0.04  -0.00     0.19   0.09  -0.03     0.26   0.12  -0.02
   7   6    -0.08  -0.14  -0.24    -0.11   0.04  -0.03    -0.08   0.10   0.02
   8   1    -0.02  -0.05  -0.12    -0.01  -0.34  -0.03    -0.01  -0.25   0.06
   9   1    -0.01  -0.03  -0.11     0.30   0.13   0.03     0.24   0.12  -0.02
  10   6    -0.11  -0.10  -0.18    -0.10   0.10  -0.03    -0.04  -0.04   0.05
  11   1    -0.03  -0.02  -0.11    -0.00  -0.37  -0.01    -0.01  -0.07  -0.02
  12   1    -0.03  -0.03  -0.12     0.35   0.16  -0.01     0.04   0.01   0.10
  13   1     0.03   0.03  -0.00    -0.00  -0.20   0.05    -0.01  -0.29   0.03
  14   6     0.15   0.35   0.26    -0.07   0.11   0.04     0.04  -0.08  -0.04
  15   1    -0.09   0.06   0.06     0.24   0.11  -0.05    -0.08  -0.05   0.00
  16   1     0.04   0.22   0.14    -0.02  -0.24   0.05     0.01   0.07   0.03
  17   6     0.12   0.04   0.42    -0.06  -0.01   0.09     0.10   0.04  -0.12
  18   1    -0.11   0.02   0.07     0.17  -0.07   0.04    -0.28   0.11  -0.07
  19   1     0.03  -0.02   0.27    -0.02   0.12  -0.12     0.03  -0.22   0.19
  20   6    -0.09  -0.06  -0.11    -0.04  -0.08   0.05     0.12   0.09  -0.08
  21   1    -0.03  -0.06  -0.07     0.19  -0.09   0.05    -0.34   0.14  -0.09
  22   1    -0.02  -0.06  -0.05     0.00   0.12  -0.15     0.01  -0.24   0.27
  23   6    -0.01  -0.18  -0.18    -0.01  -0.03  -0.04     0.02   0.02   0.02
  24   1     0.00  -0.10  -0.09     0.00  -0.01  -0.09    -0.01   0.02   0.18
  25   1     0.04  -0.05   0.03     0.02   0.00  -0.03    -0.05  -0.02   0.03
  26   1     0.01  -0.09  -0.08     0.06   0.03   0.05    -0.11  -0.06  -0.10
                     16                     17                     18
                        a                      a                      a 
 Frequencies --   796.3909               856.1355              1505.7911
 Red. masses --    99.0000                99.0000                99.0000
 Frc consts  --    99.0000                99.0000                99.0000
 IR Inten    --    99.0000                99.0000                99.0000
 Raman Activ --     0.0000                 0.0000                 0.0000
 Depolar     --     0.0000                 0.0000                 0.0000
 Atom AN      X      Y      Z        X      Y      Z        X      Y      Z
   1   6    -0.03   0.02   0.01     0.07  -0.06   0.02     0.00   0.00  -0.00
   2   1     0.12   0.06   0.14    -0.15  -0.08  -0.22    -0.01  -0.00   0.00
   3   1     0.06  -0.04   0.01    -0.08   0.08   0.01    -0.00   0.00   0.00
   4   1     0.01  -0.14  -0.13    -0.01   0.18   0.17     0.00  -0.01   0.00
   5   6    -0.15   0.09  -0.00     0.11  -0.10   0.03     0.00  -0.00  -0.00
   6   1     0.28   0.14   0.03    -0.16  -0.10  -0.14     0.00   0.00   0.00
   7   6    -0.03   0.02  -0.01    -0.13   0.15   0.01    -0.00  -0.00   0.00
   8   1    -0.01  -0.07   0.12    -0.01  -0.22  -0.08    -0.00   0.01  -0.00
   9   1     0.07   0.03  -0.11     0.20   0.13   0.11     0.01   0.00  -0.00
  10   6     0.15  -0.07  -0.02    -0.10   0.02   0.01    -0.00  -0.00  -0.00
  11   1     0.03   0.28  -0.09    -0.01  -0.13  -0.13    -0.00   0.01  -0.00
  12   1    -0.25  -0.12   0.07     0.08   0.05   0.21     0.01   0.00   0.00
  13   1    -0.02  -0.32   0.00     0.01   0.19   0.13    -0.00   0.00   0.00
  14   6     0.11  -0.13  -0.03     0.15  -0.19  -0.09    -0.01  -0.00   0.00
  15   1    -0.27  -0.12   0.02    -0.23  -0.13  -0.07     0.00   0.00  -0.00
  16   1     0.03   0.27  -0.09     0.04   0.23   0.04    -0.00   0.00  -0.01
  17   6    -0.02  -0.06   0.03     0.15  -0.06  -0.07    -0.02   0.01  -0.01
  18   1     0.13  -0.06   0.03    -0.11   0.00  -0.06     0.05  -0.03  -0.00
  19   1    -0.01   0.14  -0.05     0.04  -0.03   0.16     0.00  -0.02   0.05
  20   6    -0.16   0.03   0.04    -0.15   0.09  -0.02     0.04   0.01  -0.02
  21   1     0.22  -0.04   0.09     0.07   0.09   0.10    -0.02  -0.00  -0.03
  22   1    -0.03   0.19  -0.20    -0.03   0.04  -0.15     0.01   0.01   0.02
  23   6    -0.02   0.02   0.05    -0.05   0.05   0.10     0.18   0.08  -0.09
  24   1     0.01  -0.02  -0.15     0.01  -0.05  -0.17     0.04  -0.45  -0.13
  25   1     0.06   0.03   0.03     0.10   0.05   0.07    -0.59  -0.26   0.29
  26   1     0.10   0.05   0.09     0.11   0.05   0.11    -0.16   0.39   0.21
                     19                     20                     21
                        a                      a                      a 
 Frequencies --   888.8922              1508.4861               916.1470
 Red. masses --    99.0000                99.0000                99.0000
 Frc consts  --    99.0000                99.0000                99.0000
 IR Inten    --    99.0000                99.0000                99.0000
 Raman Activ --     0.0000                 0.0000                 0.0000
 Depolar     --     0.0000                 0.0000                 0.0000
 Atom AN      X      Y      Z        X      Y      Z        X      Y      Z
   1   6    -0.05   0.01  -0.04    -0.00  -0.01   0.00    -0.08   0.05   0.06
   2   1     0.06   0.03   0.07     0.02   0.01  -0.00     0.11   0.06   0.12
   3   1     0.03  -0.03  -0.01    -0.01  -0.01  -0.01     0.10   0.02   0.07
   4   1    -0.00  -0.08  -0.09    -0.00   0.02  -0.01     0.00  -0.12  -0.17
   5   6    -0.01   0.04  -0.00    -0.01  -0.01   0.00    -0.06  -0.05   0.02
   6   1     0.03   0.03   0.06     0.02   0.01  -0.00     0.00   0.00   0.15
   7   6     0.09  -0.02   0.06    -0.00  -0.00  -0.00     0.17  -0.03  -0.04
   8   1     0.02   0.10   0.00    -0.00   0.01  -0.00     0.04   0.17  -0.07
   9   1    -0.08  -0.04  -0.00     0.01   0.00   0.00    -0.13  -0.07   0.04
  10   6    -0.11  -0.12   0.13    -0.01  -0.02   0.00    -0.08   0.09  -0.08
  11   1    -0.03  -0.04   0.13    -0.00   0.05  -0.00    -0.02  -0.12   0.11
  12   1    -0.01  -0.03   0.01     0.04   0.02   0.00     0.12   0.07  -0.11
  13   1     0.00  -0.04  -0.08    -0.00   0.02  -0.00    -0.00  -0.05  -0.17
  14   6     0.03   0.18   0.02    -0.01   0.00  -0.00    -0.11  -0.12  -0.12
  15   1     0.09   0.07   0.08     0.02   0.01   0.01     0.03  -0.02  -0.21
  16   1     0.00  -0.04   0.11    -0.00   0.01   0.00    -0.03  -0.09   0.11
  17   6     0.09   0.20  -0.30    -0.02  -0.01  -0.03     0.26  -0.21   0.12
  18   1    -0.29   0.06  -0.19     0.08  -0.01   0.03    -0.02  -0.02   0.02
  19   1     0.02  -0.14   0.18     0.00  -0.04   0.07     0.07  -0.13   0.09
  20   6    -0.00  -0.17   0.09    -0.06   0.09  -0.04    -0.15   0.21  -0.10
  21   1     0.11   0.14   0.23     0.13  -0.04   0.02    -0.04   0.05  -0.03
  22   1     0.02  -0.10  -0.20    -0.01  -0.11   0.08    -0.03  -0.08  -0.14
  23   6    -0.09  -0.15   0.02    -0.11   0.17  -0.05    -0.08   0.21   0.13
  24   1     0.00   0.01  -0.26    -0.02  -0.48   0.39     0.00  -0.15  -0.17
  25   1     0.04   0.02  -0.24    -0.13   0.00  -0.30     0.18   0.09   0.35
  26   1     0.16   0.21   0.28     0.58  -0.22   0.10     0.08  -0.08  -0.02
                     22                     23                     24
                        a                      a                      a 
 Frequencies --   975.3321              1042.6648               943.1209
 Red. masses --    99.0000                99.0000                99.0000
 Frc consts  --    99.0000                99.0000                99.0000
 IR Inten    --    99.0000                99.0000                99.0000
 Raman Activ --     0.0000                 0.0000                 0.0000
 Depolar     --     0.0000                 0.0000                 0.0000
 Atom AN      X      Y      Z        X      Y      Z        X      Y      Z
   1   6    -0.12   0.07  -0.04     0.08   0.01   0.00    -0.07  -0.07   0.36
   2   1     0.12   0.08   0.19    -0.05  -0.02  -0.03     0.04  -0.00  -0.23
   3   1     0.07  -0.07  -0.01    -0.05  -0.02  -0.04     0.20   0.37   0.40
   4   1    -0.01  -0.17  -0.18     0.01   0.07   0.12     0.01   0.03  -0.22
   5   6     0.09  -0.04   0.01    -0.11   0.00  -0.01    -0.15  -0.22   0.08
   6   1    -0.08  -0.03   0.27     0.06   0.03  -0.08    -0.03  -0.06  -0.13
   7   6     0.06  -0.02   0.05     0.08  -0.05  -0.02     0.19   0.29  -0.23
   8   1     0.03   0.05  -0.28     0.00   0.08   0.23     0.05   0.06  -0.11
   9   1    -0.06  -0.02   0.29    -0.05  -0.05  -0.17     0.06   0.08  -0.12
  10   6    -0.19   0.06   0.02    -0.02   0.10  -0.07    -0.04  -0.10  -0.14
  11   1    -0.03  -0.18  -0.14    -0.02  -0.04   0.28    -0.01  -0.01  -0.02
  12   1     0.12   0.08   0.17     0.07   0.04  -0.23    -0.02  -0.03  -0.01
  13   1     0.03   0.08  -0.26    -0.03  -0.08   0.15    -0.03  -0.07  -0.11
  14   6     0.20  -0.09  -0.02    -0.05  -0.20  -0.10    -0.01   0.00   0.03
  15   1    -0.16  -0.08  -0.04    -0.06  -0.07  -0.31    -0.00   0.00   0.07
  16   1     0.05   0.19   0.06    -0.02   0.01   0.31    -0.00  -0.00   0.02
  17   6    -0.09   0.03  -0.05     0.13   0.01   0.07    -0.03   0.09   0.05
  18   1     0.02  -0.05  -0.04    -0.03   0.03   0.01     0.00   0.02   0.01
  19   1    -0.03   0.20   0.08     0.03   0.21   0.26    -0.01   0.05   0.02
  20   6    -0.04  -0.02   0.02    -0.13   0.09  -0.03     0.04  -0.05   0.04
  21   1     0.04  -0.04  -0.01     0.02   0.05   0.04     0.02  -0.02   0.01
  22   1    -0.02   0.19   0.11    -0.04   0.22   0.07     0.01   0.02   0.03
  23   6     0.11  -0.08  -0.05     0.12  -0.15  -0.00     0.02  -0.07  -0.05
  24   1     0.00   0.11   0.19     0.01   0.14   0.16    -0.00   0.03   0.04
  25   1    -0.12  -0.05  -0.16    -0.13  -0.06  -0.25    -0.05  -0.03  -0.10
  26   1    -0.08   0.02  -0.04    -0.05   0.09   0.06    -0.02   0.02   0.00
                     25                     26                     27
                        a                      a                      a 
 Frequencies --  1181.5048              1496.6560              1491.6317
 Red. masses --    99.0000                99.0000                99.0000
 Frc consts  --    99.0000                99.0000                99.0000
 IR Inten    --    99.0000                99.0000                99.0000
 Raman Activ --     0.0000                 0.0000                 0.0000
 Depolar     --     0.0000                 0.0000                 0.0000
 Atom AN      X      Y      Z        X      Y      Z        X      Y      Z
   1   6     0.09  -0.00  -0.01     0.00   0.00  -0.00     0.00   0.00   0.00
   2   1    -0.05  -0.03  -0.03    -0.01  -0.00   0.01    -0.00  -0.00  -0.01
   3   1    -0.05  -0.01  -0.04     0.01   0.01   0.01    -0.00  -0.01  -0.00
   4   1     0.01   0.06   0.10    -0.00  -0.01   0.01     0.00  -0.00  -0.00
   5   6    -0.17   0.00   0.01     0.02   0.03  -0.01    -0.01  -0.02   0.01
   6   1     0.06   0.04  -0.02    -0.09  -0.03   0.01     0.05   0.02  -0.01
   7   6     0.20  -0.02   0.01    -0.05  -0.09  -0.00     0.04   0.06  -0.01
   8   1     0.04   0.13   0.03    -0.01   0.25  -0.01     0.01  -0.17   0.02
   9   1    -0.08  -0.06  -0.11     0.23   0.08   0.01    -0.16  -0.06   0.01
  10   6    -0.26   0.04   0.04    -0.02  -0.02   0.04     0.02   0.02  -0.02
  11   1    -0.06  -0.16   0.06    -0.00   0.06  -0.04     0.00  -0.08   0.00
  12   1     0.11   0.07  -0.11     0.06   0.02  -0.02    -0.08  -0.03   0.01
  13   1    -0.04  -0.10   0.05     0.00  -0.09   0.01    -0.00   0.06  -0.01
  14   6     0.33  -0.06   0.02     0.09   0.14  -0.02    -0.12  -0.14   0.01
  15   1    -0.12  -0.07  -0.17    -0.36  -0.10  -0.01     0.43   0.13  -0.01
  16   1     0.08   0.21   0.04    -0.00  -0.38   0.01     0.00   0.45  -0.00
  17   6    -0.35   0.07  -0.04    -0.12   0.11  -0.13    -0.12   0.08  -0.12
  18   1     0.08   0.12   0.13     0.46  -0.07   0.11     0.42  -0.08   0.10
  19   1    -0.09   0.13  -0.15     0.00  -0.29   0.38    -0.00  -0.26   0.35
  20   6     0.32  -0.10   0.02    -0.02  -0.02  -0.04    -0.03   0.02  -0.05
  21   1    -0.08   0.01  -0.04     0.05   0.01   0.03     0.11   0.00   0.05
  22   1     0.08  -0.18   0.08    -0.00  -0.01   0.07    -0.01  -0.07   0.09
  23   6    -0.18   0.05   0.01    -0.00  -0.01   0.01     0.01  -0.02   0.01
  24   1    -0.02  -0.11  -0.20     0.00   0.07  -0.03     0.00   0.08  -0.04
  25   1     0.10   0.05   0.10     0.05   0.02   0.02     0.05   0.01   0.02
  26   1     0.09  -0.02   0.04    -0.05  -0.00  -0.02    -0.06   0.01  -0.02
                     28                     29                     30
                        a                      a                      a 
 Frequencies --  1492.9145              1503.4460              1215.6777
 Red. masses --    99.0000                99.0000                99.0000
 Frc consts  --    99.0000                99.0000                99.0000
 IR Inten    --    99.0000                99.0000                99.0000
 Raman Activ --     0.0000                 0.0000                 0.0000
 Depolar     --     0.0000                 0.0000                 0.0000
 Atom AN      X      Y      Z        X      Y      Z        X      Y      Z
   1   6     0.01   0.01  -0.00     0.00   0.01   0.01    -0.23   0.16  -0.02
   2   1    -0.06  -0.02   0.00    -0.02  -0.01  -0.02     0.14   0.11   0.20
   3   1     0.01   0.01   0.01    -0.00  -0.01  -0.01     0.10  -0.07   0.00
   4   1     0.00  -0.06   0.00     0.00  -0.03  -0.01    -0.03  -0.19  -0.19
   5   6    -0.04  -0.06  -0.00    -0.08  -0.12   0.00     0.32  -0.22   0.03
   6   1     0.15   0.06   0.01     0.34   0.12   0.00    -0.17  -0.15  -0.10
   7   6    -0.01  -0.02  -0.03     0.03   0.05   0.00    -0.23   0.16  -0.02
   8   1    -0.00   0.06   0.01     0.01  -0.19   0.00    -0.05  -0.16   0.11
   9   1     0.06   0.03   0.02    -0.18  -0.07  -0.01     0.14   0.10  -0.12
  10   6     0.11   0.17   0.01    -0.09  -0.14   0.00     0.12  -0.09   0.02
  11   1     0.03  -0.47   0.02    -0.02   0.42  -0.01     0.01   0.09   0.18
  12   1    -0.44  -0.16  -0.05     0.40   0.14   0.02    -0.06  -0.07  -0.20
  13   1    -0.01   0.16  -0.00    -0.02   0.36  -0.02     0.06   0.22   0.09
  14   6     0.04   0.05   0.02     0.02   0.03  -0.02     0.03   0.00  -0.00
  15   1    -0.11  -0.03  -0.01    -0.10  -0.03   0.01     0.00  -0.00  -0.18
  16   1     0.00  -0.11  -0.01    -0.00  -0.11   0.02     0.00   0.01   0.19
  17   6     0.02  -0.03   0.00     0.00  -0.01  -0.00    -0.12   0.01  -0.02
  18   1    -0.08   0.02  -0.02    -0.03   0.02   0.00     0.03   0.00   0.01
  19   1    -0.00   0.06  -0.07    -0.00   0.03  -0.02    -0.03   0.14   0.02
  20   6    -0.10   0.08  -0.12    -0.07   0.06  -0.09     0.18   0.01  -0.02
  21   1     0.40  -0.06   0.13     0.29  -0.05   0.09    -0.06  -0.03  -0.08
  22   1    -0.02  -0.26   0.33    -0.01  -0.19   0.24     0.04  -0.02   0.11
  23   6     0.02   0.01   0.02     0.02  -0.02   0.02    -0.13  -0.02   0.03
  24   1     0.00   0.01  -0.06     0.00   0.07  -0.08    -0.02  -0.04  -0.14
  25   1    -0.02  -0.01   0.01     0.01   0.00   0.03     0.06   0.03   0.01
  26   1    -0.06   0.01  -0.02    -0.10   0.02  -0.03     0.07   0.02   0.07
                     31                     32                     33
                        a                      a                      a 
 Frequencies --  1500.5104              1003.4275              1498.3018
 Red. masses --    99.0000                99.0000                99.0000
 Frc consts  --    99.0000                99.0000                99.0000
 IR Inten    --    99.0000                99.0000                99.0000
 Raman Activ --     0.0000                 0.0000                 0.0000
 Depolar     --     0.0000                 0.0000                 0.0000
 Atom AN      X      Y      Z        X      Y      Z        X      Y      Z
   1   6     0.01   0.02  -0.02     0.02   0.10   0.06    -0.03  -0.05   0.00
   2   1    -0.07  -0.03   0.02     0.03   0.04   0.12     0.17   0.06  -0.00
   3   1     0.03   0.04   0.03    -0.00  -0.05  -0.03    -0.03  -0.04  -0.04
   4   1     0.00  -0.08   0.03     0.01  -0.02   0.03    -0.01   0.18  -0.02
   5   6     0.02   0.03  -0.03    -0.02  -0.10  -0.04     0.11   0.18   0.02
   6   1    -0.08  -0.03   0.02    -0.05  -0.03   0.10    -0.48  -0.18  -0.03
   7   6    -0.12  -0.18   0.02    -0.05  -0.07  -0.15     0.06   0.09   0.02
   8   1    -0.03   0.51  -0.03    -0.01  -0.03  -0.07     0.02  -0.22  -0.01
   9   1     0.48   0.17   0.01    -0.01  -0.01   0.10    -0.20  -0.07  -0.03
  10   6    -0.05  -0.08   0.00     0.19   0.29  -0.20    -0.01  -0.03  -0.01
  11   1    -0.01   0.19  -0.01     0.06   0.06  -0.15    -0.00   0.08   0.00
  12   1     0.18   0.06   0.01     0.06   0.09   0.03     0.08   0.03   0.00
  13   1     0.00  -0.09   0.02    -0.01   0.01  -0.02     0.03  -0.51   0.01
  14   6    -0.07  -0.10  -0.01    -0.20  -0.29   0.09     0.01   0.01  -0.00
  15   1     0.28   0.08   0.01    -0.07  -0.08   0.03    -0.03  -0.01   0.01
  16   1     0.00   0.29   0.00    -0.05  -0.05  -0.13    -0.00  -0.03   0.01
  17   6     0.02  -0.04   0.03     0.00   0.12   0.22     0.01  -0.02   0.01
  18   1    -0.11   0.02  -0.02     0.02   0.31   0.27    -0.06   0.02  -0.01
  19   1    -0.00   0.08  -0.09     0.00  -0.12  -0.08    -0.00   0.05  -0.05
  20   6    -0.05   0.05  -0.05     0.12   0.04   0.01    -0.07   0.07  -0.09
  21   1     0.20  -0.04   0.06    -0.08   0.22   0.13     0.30  -0.05   0.10
  22   1    -0.01  -0.14   0.16     0.03  -0.17  -0.00    -0.01  -0.20   0.25
  23   6     0.01  -0.01   0.01    -0.07  -0.18  -0.03     0.01  -0.00   0.01
  24   1     0.00   0.04  -0.04    -0.01   0.03  -0.13     0.00   0.02  -0.06
  25   1     0.00  -0.00   0.01    -0.02  -0.02  -0.22    -0.01  -0.00   0.01
  26   1    -0.05   0.01  -0.02     0.07   0.14   0.17    -0.06   0.01  -0.02
                     34                     35                     36
                        a                      a                      a 
 Frequencies --  1241.6810              1099.7328              1076.3429
 Red. masses --    99.0000                99.0000                99.0000
 Frc consts  --    99.0000                99.0000                99.0000
 IR Inten    --    99.0000                99.0000                99.0000
 Raman Activ --     0.0000                 0.0000                 0.0000
 Depolar     --     0.0000                 0.0000                 0.0000
 Atom AN      X      Y      Z        X      Y      Z        X      Y      Z
   1   6     0.06  -0.11   0.03    -0.13  -0.21  -0.05     0.12   0.21   0.27
   2   1    -0.04  -0.05  -0.11    -0.01  -0.05  -0.18     0.03   0.06   0.13
   3   1    -0.02   0.07   0.04     0.05   0.10   0.10     0.01   0.02   0.04
   4   1     0.01   0.08   0.03    -0.02  -0.03  -0.17     0.03   0.06   0.13
   5   6    -0.05   0.14  -0.06     0.11   0.20   0.17    -0.11  -0.21  -0.32
   6   1     0.05   0.07   0.17     0.03   0.05   0.03    -0.04  -0.06  -0.08
   7   6    -0.04  -0.07  -0.08    -0.13  -0.25  -0.24    -0.10  -0.18  -0.27
   8   1    -0.01  -0.01   0.01    -0.03  -0.06  -0.23    -0.03  -0.06  -0.06
   9   1    -0.02  -0.00   0.26    -0.03  -0.08  -0.26    -0.03  -0.05  -0.05
  10   6     0.10   0.00  -0.08     0.05   0.15   0.41     0.11   0.21   0.24
  11   1     0.02   0.05   0.10     0.01   0.03   0.11     0.03   0.05   0.09
  12   1    -0.04  -0.01   0.21     0.02   0.04   0.09     0.04   0.06   0.08
  13   1    -0.01  -0.05  -0.05     0.03   0.04   0.04    -0.03  -0.06  -0.09
  14   6    -0.10   0.02  -0.09     0.11   0.10  -0.05     0.08   0.07   0.25
  15   1     0.03   0.02   0.18     0.02   0.02  -0.22     0.00   0.01   0.04
  16   1    -0.03  -0.06   0.15     0.03   0.04  -0.11     0.02   0.05   0.12
  17   6    -0.02  -0.06   0.07    -0.00  -0.18   0.01    -0.09  -0.10  -0.24
  18   1     0.06  -0.28  -0.16     0.06  -0.00   0.06    -0.03  -0.02  -0.06
  19   1    -0.01   0.23   0.13     0.00  -0.07  -0.10    -0.02  -0.01  -0.05
  20   6     0.23   0.15  -0.18     0.00   0.20   0.03    -0.10  -0.11  -0.26
  21   1    -0.14  -0.08  -0.23    -0.06   0.18   0.09    -0.02  -0.04  -0.07
  22   1     0.04   0.07   0.26    -0.01   0.05   0.08    -0.03  -0.00  -0.07
  23   6    -0.20  -0.12   0.13    -0.03  -0.09  -0.07     0.10   0.09   0.24
  24   1    -0.03  -0.02  -0.22    -0.01   0.02  -0.04     0.02   0.05   0.11
  25   1     0.09   0.04  -0.07    -0.02  -0.02  -0.11     0.00   0.02   0.05
  26   1     0.13   0.10   0.21     0.00   0.04   0.04     0.01   0.04   0.07
                     37                     38                     39
                        a                      a                      a 
 Frequencies --  1087.8917              1416.3018              1117.9232
 Red. masses --    99.0000                99.0000                99.0000
 Frc consts  --    99.0000                99.0000                99.0000
 IR Inten    --    99.0000                99.0000                99.0000
 Raman Activ --     0.0000                 0.0000                 0.0000
 Depolar     --     0.0000                 0.0000                 0.0000
 Atom AN      X      Y      Z        X      Y      Z        X      Y      Z
   1   6    -0.11  -0.19  -0.15    -0.10  -0.19  -0.36     0.02   0.05   0.21
   2   1    -0.01  -0.05  -0.14     0.18   0.07   0.45     0.03   0.02  -0.04
   3   1     0.02   0.04   0.03     0.21   0.35   0.26     0.07   0.12   0.14
   4   1    -0.02  -0.04  -0.14    -0.06   0.23   0.44     0.01   0.05  -0.04
   5   6     0.11   0.21   0.21    -0.01  -0.00   0.08     0.12   0.15  -0.40
   6   1     0.04   0.05   0.02     0.05   0.02  -0.08     0.05   0.03  -0.33
   7   6     0.02   0.04   0.13    -0.01  -0.02  -0.00    -0.11  -0.14   0.43
   8   1     0.01   0.02  -0.01    -0.00  -0.01  -0.01    -0.03  -0.03   0.15
   9   1     0.01   0.01  -0.02    -0.00  -0.01  -0.01    -0.04  -0.04   0.12
  10   6    -0.01  -0.01  -0.16     0.01   0.01  -0.03    -0.10  -0.12  -0.02
  11   1     0.00  -0.02  -0.13    -0.00   0.00   0.03    -0.02  -0.05  -0.13
  12   1     0.02  -0.00  -0.17    -0.00   0.00   0.03    -0.01  -0.04  -0.15
  13   1     0.03   0.05   0.03     0.00   0.04  -0.08     0.04   0.02  -0.32
  14   6     0.02   0.01   0.15    -0.00   0.00   0.01     0.07   0.05  -0.03
  15   1    -0.01  -0.00   0.01     0.00   0.00  -0.01     0.01   0.01  -0.12
  16   1     0.00   0.01   0.03     0.00  -0.00  -0.01     0.02   0.02  -0.06
  17   6    -0.09  -0.03  -0.03     0.00   0.00   0.00    -0.01  -0.16   0.05
  18   1     0.01   0.14   0.12     0.00  -0.00  -0.00     0.06   0.02   0.08
  19   1    -0.03   0.02  -0.06     0.00  -0.00   0.01     0.00  -0.07  -0.10
  20   6    -0.11  -0.16  -0.47     0.00  -0.02  -0.01    -0.00   0.18  -0.01
  21   1    -0.06  -0.03  -0.13    -0.01   0.02   0.01    -0.06   0.14   0.04
  22   1    -0.03  -0.10  -0.13    -0.00   0.02   0.00    -0.01   0.03   0.06
  23   6     0.15   0.03   0.41     0.03   0.05   0.10    -0.03  -0.09  -0.02
  24   1     0.03   0.11   0.14     0.02  -0.06  -0.13    -0.01   0.03  -0.04
  25   1    -0.01   0.01  -0.04    -0.06  -0.00  -0.12    -0.02  -0.01  -0.10
  26   1     0.05   0.13   0.21    -0.05  -0.09  -0.09     0.01   0.06   0.07
                     40                     41                     42
                        a                      a                      a 
 Frequencies --  1148.5715              1258.8013              1130.4801
 Red. masses --    99.0000                99.0000                99.0000
 Frc consts  --    99.0000                99.0000                99.0000
 IR Inten    --    99.0000                99.0000                99.0000
 Raman Activ --     0.0000                 0.0000                 0.0000
 Depolar     --     0.0000                 0.0000                 0.0000
 Atom AN      X      Y      Z        X      Y      Z        X      Y      Z
   1   6     0.08   0.13  -0.07     0.17   0.01  -0.03     0.03   0.07   0.05
   2   1    -0.01   0.02   0.14    -0.08  -0.04  -0.03     0.01   0.02   0.05
   3   1    -0.06  -0.12  -0.13    -0.08  -0.04  -0.08    -0.00  -0.01  -0.01
   4   1     0.01  -0.00   0.14     0.02   0.07   0.14     0.01   0.01   0.04
   5   6    -0.15  -0.25   0.09    -0.14  -0.06   0.11    -0.02  -0.07  -0.10
   6   1    -0.05  -0.06   0.11     0.02   0.01   0.08    -0.02  -0.02  -0.03
   7   6     0.17   0.28  -0.06    -0.06   0.12   0.15    -0.04  -0.02  -0.00
   8   1     0.04   0.05  -0.03     0.01  -0.06  -0.39    -0.01  -0.04  -0.05
   9   1     0.05   0.07  -0.00     0.06   0.04  -0.18    -0.00  -0.00   0.00
  10   6    -0.13  -0.27   0.00     0.16  -0.06   0.19    -0.10  -0.15   0.26
  11   1    -0.03  -0.02  -0.03     0.05   0.09  -0.32    -0.03  -0.02   0.15
  12   1    -0.06  -0.07   0.05    -0.06  -0.07  -0.26    -0.06  -0.05   0.16
  13   1    -0.04  -0.05   0.09    -0.01  -0.07  -0.36    -0.01  -0.01  -0.04
  14   6     0.11   0.26   0.00    -0.14  -0.03   0.08    -0.04   0.07  -0.48
  15   1     0.08   0.08  -0.04     0.05   0.02  -0.29     0.03   0.03  -0.15
  16   1     0.03  -0.00  -0.09    -0.03  -0.06   0.04    -0.00  -0.03  -0.36
  17   6     0.00  -0.33   0.08     0.07   0.06  -0.09     0.08   0.27   0.32
  18   1     0.11  -0.07   0.06    -0.07   0.07  -0.01     0.03   0.10   0.10
  19   1     0.01  -0.15  -0.19     0.01   0.05   0.10     0.02   0.18   0.13
  20   6    -0.08   0.28  -0.15     0.05  -0.03   0.03     0.01  -0.16  -0.18
  21   1    -0.11   0.20   0.03     0.01  -0.15  -0.11     0.01  -0.10  -0.09
  22   1    -0.03   0.06   0.06     0.00   0.14   0.13     0.01  -0.16  -0.11
  23   6     0.02  -0.13   0.06    -0.09  -0.01   0.02     0.08  -0.00   0.15
  24   1     0.00   0.08   0.00    -0.01  -0.03  -0.08     0.02   0.04   0.07
  25   1    -0.04  -0.02  -0.17     0.03   0.01   0.01    -0.00  -0.00  -0.01
  26   1     0.02   0.11   0.13     0.04   0.01   0.04     0.02   0.04   0.07
                     43                     44                     45
                        a                      a                      a 
 Frequencies --  1267.6941              1287.6864              1292.3701
 Red. masses --    99.0000                99.0000                99.0000
 Frc consts  --    99.0000                99.0000                99.0000
 IR Inten    --    99.0000                99.0000                99.0000
 Raman Activ --     0.0000                 0.0000                 0.0000
 Depolar     --     0.0000                 0.0000                 0.0000
 Atom AN      X      Y      Z        X      Y      Z        X      Y      Z
   1   6    -0.09   0.11  -0.03     0.03  -0.07   0.02     0.09  -0.02  -0.01
   2   1     0.05   0.05   0.10    -0.01  -0.03  -0.05    -0.04  -0.03  -0.04
   3   1     0.02  -0.05  -0.03     0.01   0.03   0.03    -0.03  -0.01  -0.03
   4   1    -0.01  -0.08  -0.06     0.01   0.04   0.02     0.01   0.04   0.06
   5   6    -0.03  -0.04   0.06     0.10  -0.03  -0.06     0.03  -0.05   0.06
   6   1     0.02  -0.02  -0.40    -0.06  -0.02   0.37    -0.04  -0.01   0.22
   7   6     0.12  -0.07   0.07    -0.08   0.05  -0.09    -0.15   0.09   0.04
   8   1     0.04   0.07  -0.19    -0.04  -0.04   0.40    -0.03  -0.08   0.04
   9   1    -0.06  -0.05  -0.09     0.04   0.03  -0.18     0.08   0.05  -0.21
  10   6    -0.11   0.16   0.09    -0.13   0.04   0.00    -0.05   0.10   0.00
  11   1    -0.02  -0.09  -0.05    -0.03  -0.07   0.09    -0.02  -0.02   0.21
  12   1     0.10   0.07  -0.23     0.05   0.04   0.02     0.06   0.03  -0.33
  13   1    -0.02   0.00   0.26     0.03   0.04  -0.20     0.02   0.01  -0.35
  14   6     0.00  -0.13   0.04     0.10  -0.02  -0.02     0.07  -0.13   0.04
  15   1    -0.05  -0.05   0.29    -0.02  -0.02   0.05    -0.09  -0.06   0.24
  16   1     0.01   0.03  -0.35     0.03   0.06  -0.12     0.02   0.05  -0.18
  17   6     0.15   0.06   0.01     0.12   0.10  -0.03    -0.06   0.02   0.08
  18   1    -0.03  -0.14  -0.14    -0.06   0.20   0.09     0.06  -0.35  -0.21
  19   1     0.04  -0.10   0.04     0.04  -0.33  -0.15    -0.02   0.08   0.02
  20   6    -0.01   0.12  -0.02    -0.09   0.00   0.04     0.01   0.17   0.02
  21   1    -0.00  -0.23  -0.22     0.06  -0.33  -0.22    -0.04   0.11   0.04
  22   1    -0.01   0.14   0.13    -0.04   0.26   0.16     0.03  -0.32  -0.23
  23   6    -0.07  -0.09   0.07    -0.06  -0.05   0.05     0.09  -0.04  -0.01
  24   1    -0.01   0.02  -0.09    -0.01  -0.01  -0.07     0.02   0.04   0.05
  25   1     0.01   0.00  -0.07     0.00  -0.00  -0.03    -0.04  -0.02  -0.08
  26   1     0.04   0.06   0.10     0.03   0.03   0.07    -0.04   0.00  -0.03
                     46                     47                     48
                        a                      a                      a 
 Frequencies --  1505.0503              1285.6547              1324.8769
 Red. masses --    99.0000                99.0000                99.0000
 Frc consts  --    99.0000                99.0000                99.0000
 IR Inten    --    99.0000                99.0000                99.0000
 Raman Activ --     0.0000                 0.0000                 0.0000
 Depolar     --     0.0000                 0.0000                 0.0000
 Atom AN      X      Y      Z        X      Y      Z        X      Y      Z
   1   6     0.18  -0.12   0.01    -0.03   0.05  -0.02    -0.06  -0.09   0.04
   2   1    -0.17  -0.06   0.43     0.02   0.02   0.04     0.05   0.01  -0.01
   3   1    -0.60   0.39  -0.05     0.02  -0.04  -0.02     0.06   0.10   0.11
   4   1     0.04   0.15  -0.44    -0.00  -0.04  -0.01    -0.01   0.05  -0.01
   5   6     0.04  -0.03   0.00     0.09  -0.09   0.06     0.04   0.02  -0.29
   6   1    -0.01  -0.01  -0.02    -0.04  -0.05  -0.04    -0.02   0.02   0.35
   7   6    -0.00  -0.00  -0.00     0.11  -0.08   0.06     0.06   0.08  -0.13
   8   1    -0.00   0.01   0.02     0.01   0.08   0.33     0.00  -0.00   0.20
   9   1     0.01   0.00  -0.02    -0.03  -0.07  -0.52    -0.02   0.02   0.18
  10   6    -0.00   0.00  -0.00    -0.09   0.12   0.02    -0.06  -0.05   0.18
  11   1    -0.00   0.00  -0.00     0.01  -0.09  -0.49     0.00  -0.00  -0.26
  12   1     0.01   0.00   0.00     0.03   0.07   0.37     0.03  -0.01  -0.27
  13   1     0.01   0.02   0.02     0.02   0.05  -0.08    -0.01   0.02   0.34
  14   6    -0.00  -0.00  -0.00    -0.14   0.02  -0.00    -0.07  -0.02   0.25
  15   1     0.00   0.00   0.00     0.03   0.03  -0.01     0.02   0.00  -0.23
  16   1    -0.00   0.00   0.00    -0.04  -0.07   0.05    -0.01  -0.02  -0.37
  17   6    -0.00  -0.00   0.00    -0.00  -0.00   0.05     0.05  -0.02  -0.08
  18   1    -0.00   0.00   0.00     0.00  -0.17  -0.11    -0.04  -0.08  -0.10
  19   1    -0.00   0.00  -0.00    -0.01   0.15   0.09     0.00   0.19   0.16
  20   6    -0.00   0.00  -0.00     0.06   0.00  -0.08     0.04  -0.03  -0.01
  21   1     0.00  -0.00   0.00    -0.04   0.09   0.03    -0.01   0.08   0.06
  22   1    -0.00  -0.00   0.00     0.01  -0.06   0.02     0.01  -0.00   0.02
  23   6     0.00  -0.00   0.00    -0.01   0.00   0.02    -0.02   0.02  -0.02
  24   1     0.00   0.01  -0.00    -0.00   0.00  -0.01    -0.00  -0.01   0.00
  25   1     0.00   0.00   0.00     0.02   0.01   0.00     0.02   0.01   0.03
  26   1    -0.00   0.00  -0.00     0.01   0.01   0.01     0.01  -0.01  -0.01
                     49                     50                     51
                        a                      a                      a 
 Frequencies --  1312.2649              1508.2160              1367.8270
 Red. masses --    99.0000                99.0000                99.0000
 Frc consts  --    99.0000                99.0000                99.0000
 IR Inten    --    99.0000                99.0000                99.0000
 Raman Activ --     0.0000                 0.0000                 0.0000
 Depolar     --     0.0000                 0.0000                 0.0000
 Atom AN      X      Y      Z        X      Y      Z        X      Y      Z
   1   6    -0.03  -0.01   0.01    -0.10  -0.14   0.11     0.04   0.06  -0.03
   2   1     0.01   0.01   0.00     0.57   0.21  -0.11    -0.05  -0.01  -0.02
   3   1     0.01   0.02   0.03    -0.13  -0.23  -0.17    -0.04  -0.08  -0.08
   4   1    -0.01   0.00  -0.01    -0.02   0.59  -0.15     0.01  -0.06  -0.02
   5   6    -0.01   0.02  -0.06    -0.06  -0.08   0.05    -0.00   0.04   0.34
   6   1     0.01   0.01   0.00     0.14   0.04  -0.02    -0.00  -0.02  -0.32
   7   6     0.05  -0.02  -0.05    -0.03  -0.04  -0.02    -0.01  -0.05  -0.24
   8   1     0.01   0.02   0.00    -0.01   0.14   0.00    -0.02   0.03   0.24
   9   1    -0.03  -0.01   0.12     0.13   0.05   0.01     0.01   0.01   0.25
  10   6     0.06  -0.04   0.06     0.00   0.01   0.01    -0.02  -0.05  -0.15
  11   1     0.03   0.03  -0.18     0.00  -0.03  -0.00    -0.02   0.02   0.15
  12   1    -0.03  -0.02   0.07    -0.03  -0.01  -0.01     0.01   0.01   0.16
  13   1    -0.01  -0.01   0.15    -0.01   0.14  -0.04     0.02  -0.03  -0.31
  14   6     0.02  -0.05   0.02    -0.01  -0.01   0.00    -0.01   0.01   0.35
  15   1    -0.03  -0.02  -0.34     0.03   0.01  -0.00    -0.01  -0.00  -0.36
  16   1    -0.00   0.00   0.24     0.00   0.03  -0.00     0.01  -0.02  -0.35
  17   6    -0.09   0.24   0.09     0.00   0.00   0.00     0.03   0.05  -0.06
  18   1     0.00  -0.21  -0.17    -0.00  -0.00  -0.00    -0.03  -0.08  -0.09
  19   1    -0.01  -0.25  -0.22    -0.00  -0.00  -0.00     0.01   0.04   0.05
  20   6    -0.05   0.26   0.15     0.01  -0.01   0.00     0.02  -0.01  -0.00
  21   1     0.02  -0.30  -0.25    -0.02   0.00  -0.00     0.01  -0.02  -0.01
  22   1     0.01  -0.32  -0.25     0.00   0.01  -0.01     0.00   0.01   0.02
  23   6     0.08  -0.10   0.06     0.01  -0.01   0.00    -0.01   0.00   0.01
  24   1     0.01   0.05  -0.02     0.00   0.01  -0.01    -0.00  -0.00  -0.01
  25   1    -0.07  -0.03  -0.16     0.00  -0.00   0.01     0.01   0.01  -0.00
  26   1    -0.05   0.02   0.01    -0.02   0.01  -0.00     0.01  -0.01   0.00
                     52                     53                     54
                        a                      a                      a 
 Frequencies --  1374.9841              1379.6343              1416.6312
 Red. masses --    99.0000                99.0000                99.0000
 Frc consts  --    99.0000                99.0000                99.0000
 IR Inten    --    99.0000                99.0000                99.0000
 Raman Activ --     0.0000                 0.0000                 0.0000
 Depolar     --     0.0000                 0.0000                 0.0000
 Atom AN      X      Y      Z        X      Y      Z        X      Y      Z
   1   6    -0.00  -0.01   0.01     0.01   0.01  -0.04    -0.03  -0.05  -0.10
   2   1     0.01   0.00  -0.00    -0.02  -0.01   0.01     0.05   0.02   0.13
   3   1     0.00   0.01   0.01    -0.01  -0.01  -0.02     0.06   0.10   0.07
   4   1    -0.00   0.01  -0.00     0.00  -0.02   0.02    -0.02   0.06   0.12
   5   6    -0.00  -0.00  -0.05     0.00   0.03   0.22    -0.00  -0.00   0.02
   6   1     0.00   0.00   0.04    -0.01  -0.01  -0.17     0.01   0.00  -0.02
   7   6    -0.02   0.01   0.07     0.02   0.00  -0.36    -0.00  -0.01   0.00
   8   1     0.00  -0.01  -0.08    -0.01   0.00   0.30    -0.00  -0.00  -0.00
   9   1     0.01   0.00  -0.03    -0.02   0.01   0.31    -0.00  -0.00  -0.01
  10   6     0.02  -0.00  -0.04    -0.02  -0.00   0.38     0.00   0.00  -0.02
  11   1     0.00   0.02   0.06     0.02   0.00  -0.32     0.00  -0.00   0.01
  12   1     0.00  -0.00  -0.02     0.03  -0.01  -0.34    -0.00   0.00   0.02
  13   1    -0.00   0.00   0.04     0.01  -0.02  -0.17     0.00   0.01  -0.02
  14   6     0.03  -0.10   0.02     0.00  -0.03  -0.27     0.01  -0.00   0.01
  15   1    -0.03  -0.03  -0.15     0.01  -0.00   0.22    -0.01  -0.00  -0.02
  16   1     0.01   0.03   0.04    -0.01   0.03   0.23     0.00  -0.01   0.01
  17   6    -0.01   0.35   0.28    -0.01   0.02   0.09    -0.01   0.00  -0.02
  18   1    -0.02  -0.34  -0.25     0.00  -0.00   0.02    -0.01  -0.00  -0.01
  19   1     0.01  -0.30  -0.26    -0.00  -0.04  -0.07    -0.00   0.00  -0.01
  20   6     0.00  -0.29  -0.26    -0.01  -0.05  -0.04    -0.01   0.06   0.04
  21   1     0.00   0.26   0.22    -0.01   0.08   0.07     0.05  -0.07  -0.03
  22   1    -0.02   0.25   0.22    -0.00   0.03   0.02     0.00  -0.09  -0.01
  23   6    -0.04   0.07  -0.01     0.00   0.01  -0.02    -0.10  -0.17  -0.37
  24   1    -0.01  -0.03   0.05    -0.00  -0.00   0.03    -0.05   0.22   0.44
  25   1     0.04   0.02   0.09     0.00  -0.00   0.03     0.22   0.01   0.44
  26   1     0.05  -0.00   0.01     0.01   0.01   0.00     0.19   0.32   0.32
                     55                     56                     57
                        a                      a                      a 
 Frequencies --  2954.2682              2955.7822              2956.0435
 Red. masses --    99.0000                99.0000                99.0000
 Frc consts  --    99.0000                99.0000                99.0000
 IR Inten    --    99.0000                99.0000                99.0000
 Raman Activ --     0.0000                 0.0000                 0.0000
 Depolar     --     0.0000                 0.0000                 0.0000
 Atom AN      X      Y      Z        X      Y      Z        X      Y      Z
   1   6    -0.00   0.00  -0.00    -0.00   0.00  -0.00     0.00  -0.00   0.00
   2   1     0.00  -0.01  -0.00     0.00  -0.01  -0.00    -0.00   0.01   0.00
   3   1    -0.00   0.00  -0.00    -0.00   0.00  -0.00     0.00  -0.00  -0.00
   4   1     0.01   0.00   0.00     0.01   0.00   0.00    -0.02  -0.00  -0.00
   5   6     0.07  -0.05   0.01     0.06  -0.04   0.00    -0.07   0.05  -0.01
   6   1    -0.07   0.21  -0.01    -0.06   0.17  -0.01     0.07  -0.19   0.01
   7   6    -0.15   0.09  -0.01    -0.09   0.06  -0.01     0.09  -0.07   0.01
   8   1     0.42   0.03   0.02     0.22   0.02   0.01    -0.23  -0.02  -0.01
   9   1     0.13  -0.38   0.02     0.09  -0.24   0.01    -0.10   0.28  -0.02
  10   6     0.13  -0.05   0.01    -0.03   0.02  -0.00     0.02  -0.00   0.00
  11   1    -0.41  -0.02  -0.02     0.09   0.01   0.00    -0.04  -0.00  -0.00
  12   1    -0.07   0.24  -0.01     0.03  -0.09   0.01    -0.00   0.02  -0.00
  13   1    -0.21  -0.02  -0.01    -0.18  -0.01  -0.01     0.19   0.02   0.01
  14   6    -0.10   0.10  -0.00     0.16  -0.12   0.01    -0.04   0.08   0.00
  15   1     0.10  -0.36   0.00    -0.12   0.45  -0.00     0.10  -0.31   0.00
  16   1     0.26   0.01   0.01    -0.47  -0.00  -0.01     0.03   0.01   0.00
  17   6    -0.03  -0.02   0.04    -0.13  -0.05   0.06    -0.15  -0.09   0.12
  18   1     0.05   0.10  -0.14     0.08   0.17  -0.23     0.17   0.34  -0.46
  19   1     0.03  -0.00   0.00     0.41   0.01   0.01     0.36  -0.00   0.02
  20   6     0.03   0.01  -0.01     0.03   0.02  -0.02     0.08   0.03  -0.03
  21   1    -0.02  -0.03   0.04    -0.03  -0.06   0.08    -0.05  -0.10   0.12
  22   1    -0.08  -0.00  -0.01    -0.11   0.00  -0.01    -0.25  -0.00  -0.02
  23   6    -0.00   0.00   0.00    -0.00   0.00  -0.00    -0.00   0.00  -0.00
  24   1     0.01   0.00   0.00     0.00   0.00   0.00     0.02   0.00   0.00
  25   1     0.00  -0.00  -0.00     0.00  -0.00  -0.00     0.00  -0.01  -0.00
  26   1     0.00   0.00  -0.00     0.00   0.00  -0.00     0.00   0.00  -0.01
                     58                     59                     60
                        a                      a                      a 
 Frequencies --  2964.5383              3031.4674              3029.1234
 Red. masses --    99.0000                99.0000                99.0000
 Frc consts  --    99.0000                99.0000                99.0000
 IR Inten    --    99.0000                99.0000                99.0000
 Raman Activ --     0.0000                 0.0000                 0.0000
 Depolar     --     0.0000                 0.0000                 0.0000
 Atom AN      X      Y      Z        X      Y      Z        X      Y      Z
   1   6     0.02  -0.01   0.00     0.14   0.21  -0.14     0.25  -0.15   0.02
   2   1    -0.02   0.05  -0.00     0.22  -0.46   0.00    -0.22   0.61  -0.03
   3   1     0.00  -0.00   0.00    -0.23  -0.28   0.52     0.03  -0.03   0.01
   4   1    -0.06  -0.01  -0.00    -0.47   0.01  -0.05    -0.68  -0.05  -0.04
   5   6    -0.17   0.10  -0.01     0.02   0.03  -0.00     0.04  -0.02   0.00
   6   1     0.13  -0.39   0.02     0.03  -0.07   0.01    -0.03   0.07  -0.01
   7   6    -0.04   0.03  -0.00     0.01   0.01  -0.00     0.01  -0.01   0.00
   8   1     0.09   0.01   0.01    -0.04   0.00  -0.00    -0.03  -0.00  -0.00
   9   1     0.04  -0.10   0.00     0.02  -0.04   0.00    -0.01   0.02  -0.00
  10   6     0.17  -0.04   0.01     0.00   0.00  -0.00     0.00  -0.00   0.00
  11   1    -0.56  -0.02  -0.03    -0.01   0.00  -0.00    -0.01  -0.00  -0.00
  12   1    -0.04   0.16  -0.01     0.01  -0.02   0.00    -0.00   0.01  -0.00
  13   1     0.48   0.03   0.03    -0.07   0.00  -0.00    -0.08  -0.00  -0.00
  14   6     0.04  -0.08  -0.00     0.00   0.00  -0.00     0.00  -0.00   0.00
  15   1    -0.10   0.32  -0.00     0.00  -0.01   0.00    -0.00   0.00  -0.00
  16   1    -0.04  -0.01  -0.00    -0.01   0.00   0.00    -0.01   0.00   0.00
  17   6    -0.02   0.02  -0.03     0.00   0.00  -0.00     0.00   0.00  -0.00
  18   1    -0.05  -0.08   0.10    -0.00  -0.00   0.00    -0.00  -0.00   0.00
  19   1     0.14   0.01  -0.01    -0.00   0.00  -0.00    -0.00  -0.00  -0.00
  20   6    -0.01   0.00  -0.00     0.00   0.00  -0.00     0.00   0.00  -0.00
  21   1    -0.00   0.00  -0.00    -0.00  -0.01   0.01    -0.00  -0.00   0.01
  22   1     0.05   0.00   0.00     0.00   0.00  -0.00     0.00   0.00  -0.00
  23   6     0.00  -0.00   0.00    -0.00   0.01  -0.01    -0.01   0.02  -0.01
  24   1    -0.01  -0.00  -0.00     0.02   0.00  -0.00     0.03   0.00   0.00
  25   1    -0.00   0.00   0.00     0.01  -0.02  -0.00     0.02  -0.04  -0.01
  26   1     0.00   0.00  -0.00    -0.02  -0.03   0.04    -0.02  -0.03   0.04
                     61                     62                     63
                        a                      a                      a 
 Frequencies --  2968.7508              3027.9629              2993.6478
 Red. masses --    99.0000                99.0000                99.0000
 Frc consts  --    99.0000                99.0000                99.0000
 IR Inten    --    99.0000                99.0000                99.0000
 Raman Activ --     0.0000                 0.0000                 0.0000
 Depolar     --     0.0000                 0.0000                 0.0000
 Atom AN      X      Y      Z        X      Y      Z        X      Y      Z
   1   6     0.00  -0.00   0.00    -0.01  -0.00   0.00     0.00   0.01  -0.01
   2   1    -0.00   0.01  -0.00    -0.00   0.00   0.00     0.01  -0.03   0.00
   3   1     0.00  -0.00   0.00     0.01   0.01  -0.02    -0.01  -0.01   0.02
   4   1    -0.01  -0.00  -0.00     0.04   0.00   0.00    -0.01   0.00  -0.00
   5   6    -0.02   0.02  -0.00    -0.00   0.00  -0.00    -0.01  -0.03   0.00
   6   1     0.03  -0.07   0.00     0.00  -0.00   0.00    -0.05   0.13  -0.01
   7   6    -0.03  -0.01  -0.00     0.00   0.00   0.00     0.00  -0.05   0.00
   8   1     0.14   0.00   0.01    -0.00   0.00  -0.00     0.06  -0.00   0.00
   9   1    -0.02   0.05  -0.00     0.00  -0.00   0.00    -0.06   0.15  -0.01
  10   6     0.01   0.00  -0.00     0.00   0.00  -0.00     0.01  -0.15   0.01
  11   1    -0.04  -0.00  -0.00    -0.01   0.00  -0.00     0.18  -0.02   0.01
  12   1     0.00   0.00  -0.00     0.01  -0.02   0.00    -0.22   0.54  -0.03
  13   1     0.04   0.00   0.00     0.00   0.00   0.00     0.09  -0.00   0.00
  14   6     0.07   0.05   0.00     0.00   0.00  -0.00     0.00  -0.05   0.00
  15   1     0.07  -0.19   0.00     0.00  -0.01   0.00    -0.05   0.16   0.00
  16   1    -0.33   0.02  -0.01    -0.01   0.00  -0.00     0.04  -0.01   0.00
  17   6     0.01  -0.05   0.07     0.01   0.01  -0.01    -0.01  -0.03   0.03
  18   1     0.12   0.21  -0.28    -0.01  -0.02   0.03     0.05   0.09  -0.12
  19   1    -0.16  -0.01   0.01    -0.02   0.00  -0.00    -0.02  -0.00   0.00
  20   6    -0.21  -0.04   0.03     0.04   0.03  -0.03    -0.01  -0.10   0.12
  21   1     0.04   0.11  -0.13    -0.05  -0.08   0.10     0.23   0.38  -0.45
  22   1     0.74   0.02   0.04    -0.07   0.00  -0.00    -0.19  -0.02   0.01
  23   6     0.02   0.01  -0.01     0.22   0.13  -0.13     0.01   0.03  -0.02
  24   1    -0.07  -0.00  -0.01    -0.56   0.01  -0.06     0.00   0.01  -0.00
  25   1     0.00   0.01  -0.00     0.05  -0.02  -0.02     0.03  -0.06  -0.01
  26   1    -0.02  -0.03   0.04    -0.26  -0.44   0.55    -0.05  -0.07   0.09
                     64                     65                     66
                        a                      a                      a 
 Frequencies --  2972.1284              2978.8218              2987.4399
 Red. masses --    99.0000                99.0000                99.0000
 Frc consts  --    99.0000                99.0000                99.0000
 IR Inten    --    99.0000                99.0000                99.0000
 Raman Activ --     0.0000                 0.0000                 0.0000
 Depolar     --     0.0000                 0.0000                 0.0000
 Atom AN      X      Y      Z        X      Y      Z        X      Y      Z
   1   6    -0.02   0.01  -0.00    -0.01  -0.02   0.01     0.01   0.01  -0.01
   2   1     0.02  -0.06   0.00    -0.02   0.05   0.00     0.02  -0.03   0.00
   3   1    -0.01  -0.00   0.01     0.02   0.02  -0.04    -0.01  -0.02   0.03
   4   1     0.05   0.00   0.00     0.05  -0.00   0.01    -0.04   0.00  -0.00
   5   6     0.11  -0.11   0.01     0.08   0.13  -0.00    -0.04  -0.06   0.00
   6   1    -0.15   0.41  -0.02     0.21  -0.48   0.03    -0.09   0.20  -0.01
   7   6     0.13  -0.08   0.01     0.03   0.04  -0.00    -0.04  -0.06  -0.00
   8   1    -0.33  -0.02  -0.02    -0.15   0.00  -0.01     0.20  -0.00   0.01
   9   1    -0.10   0.30  -0.01     0.07  -0.15   0.01    -0.08   0.19  -0.01
  10   6     0.12   0.02   0.01    -0.02  -0.05   0.00    -0.03  -0.11   0.00
  11   1    -0.48  -0.01  -0.03     0.16  -0.00   0.01     0.29  -0.01   0.02
  12   1     0.05  -0.09   0.01    -0.08   0.20  -0.01    -0.17   0.41  -0.02
  13   1    -0.21  -0.02  -0.01    -0.51  -0.00  -0.03     0.22  -0.00   0.01
  14   6    -0.04  -0.06  -0.00    -0.07  -0.02  -0.00    -0.04  -0.03  -0.00
  15   1    -0.09   0.25  -0.00    -0.03   0.07   0.00    -0.04   0.11  -0.00
  16   1     0.23  -0.02   0.01     0.28  -0.01   0.01     0.19  -0.01   0.00
  17   6    -0.06  -0.01   0.01    -0.09   0.00  -0.01    -0.03   0.01  -0.02
  18   1     0.00   0.02  -0.03    -0.03  -0.03   0.04    -0.03  -0.04   0.06
  19   1     0.20   0.01  -0.00     0.35   0.02  -0.01     0.13   0.01  -0.00
  20   6    -0.07  -0.01   0.01    -0.07  -0.01   0.01    -0.02   0.09  -0.11
  21   1     0.02   0.04  -0.05     0.01   0.04  -0.04    -0.21  -0.33   0.40
  22   1     0.25   0.01   0.02     0.24   0.01   0.01     0.29   0.02  -0.00
  23   6     0.01   0.00  -0.00     0.01  -0.00  -0.00     0.01  -0.02   0.01
  24   1    -0.03  -0.00  -0.00    -0.05  -0.00  -0.00    -0.03  -0.00  -0.00
  25   1    -0.00   0.01   0.00    -0.00   0.02   0.00    -0.02   0.05   0.01
  26   1    -0.00  -0.01   0.01    -0.00  -0.01   0.01     0.03   0.04  -0.05
                     67                     68                     69
                        a                      a                      a 
 Frequencies --  2976.2743              2972.6264              3030.5644
 Red. masses --    99.0000                99.0000                99.0000
 Frc consts  --    99.0000                99.0000                99.0000
 IR Inten    --    99.0000                99.0000                99.0000
 Raman Activ --     0.0000                 0.0000                 0.0000
 Depolar     --     0.0000                 0.0000                 0.0000
 Atom AN      X      Y      Z        X      Y      Z        X      Y      Z
   1   6    -0.00   0.00  -0.00     0.00  -0.01   0.00    -0.03  -0.00   0.01
   2   1     0.00  -0.00  -0.00    -0.01   0.02  -0.00     0.00  -0.02   0.00
   3   1    -0.00  -0.01   0.01     0.00  -0.00  -0.00     0.01   0.02  -0.03
   4   1    -0.00   0.00  -0.00    -0.01  -0.00  -0.00     0.08   0.00   0.01
   5   6    -0.03  -0.06  -0.00    -0.06  -0.03  -0.00    -0.00   0.00  -0.00
   6   1    -0.10   0.23  -0.01    -0.06   0.12  -0.01     0.00  -0.00   0.00
   7   6     0.05   0.06   0.00     0.06   0.14  -0.00    -0.00   0.00  -0.00
   8   1    -0.31  -0.00  -0.02    -0.45   0.00  -0.02     0.01   0.00   0.00
   9   1     0.11  -0.25   0.01     0.22  -0.53   0.03     0.00  -0.00   0.00
  10   6     0.00  -0.02   0.00    -0.04   0.00  -0.00    -0.00   0.00  -0.00
  11   1     0.05  -0.00   0.00     0.15   0.00   0.01     0.01   0.00   0.00
  12   1    -0.05   0.12  -0.01    -0.01   0.00   0.00     0.00  -0.01   0.00
  13   1     0.23  -0.00   0.01     0.27   0.01   0.01     0.01   0.00   0.00
  14   6     0.04   0.10  -0.00    -0.06  -0.05   0.00    -0.00   0.00  -0.00
  15   1     0.13  -0.37   0.00    -0.07   0.20   0.00     0.00  -0.01   0.00
  16   1    -0.29   0.02  -0.01     0.29  -0.02   0.01     0.01   0.00   0.00
  17   6    -0.10   0.05  -0.07     0.03  -0.05   0.07    -0.01   0.01  -0.01
  18   1    -0.13  -0.21   0.29     0.11   0.19  -0.26    -0.02  -0.03   0.03
  19   1     0.48   0.03  -0.02    -0.23  -0.02   0.01     0.05   0.00  -0.00
  20   6    -0.05  -0.02   0.02    -0.02   0.00  -0.01    -0.02   0.02  -0.02
  21   1     0.05   0.09  -0.11    -0.02  -0.03   0.03    -0.04  -0.05   0.06
  22   1     0.11   0.00   0.01     0.11   0.00   0.00     0.09   0.00   0.00
  23   6     0.01  -0.00   0.00     0.00   0.00  -0.00    -0.18   0.21  -0.07
  24   1    -0.04  -0.00  -0.00     0.00  -0.00  -0.00     0.60   0.05   0.03
  25   1    -0.00   0.01   0.00     0.00  -0.00  -0.00     0.21  -0.56  -0.07
  26   1     0.00   0.00   0.00    -0.01  -0.01   0.01    -0.18  -0.21   0.30
                     70                     71                     72
                        a                      a                      a 
 Frequencies --  2981.3702              3036.6612              3035.8491
 Red. masses --    99.0000                99.0000                99.0000
 Frc consts  --    99.0000                99.0000                99.0000
 IR Inten    --    99.0000                99.0000                99.0000
 Raman Activ --     0.0000                 0.0000                 0.0000
 Depolar     --     0.0000                 0.0000                 0.0000
 Atom AN      X      Y      Z        X      Y      Z        X      Y      Z
   1   6     0.02   0.00  -0.01    -0.01  -0.03  -0.15     0.00   0.01   0.02
   2   1     0.00   0.00  -0.00    -0.18   0.44  -0.04     0.03  -0.07   0.01
   3   1    -0.01  -0.01   0.02    -0.27  -0.34   0.57     0.04   0.05  -0.08
   4   1    -0.06  -0.00  -0.00     0.46   0.02   0.01    -0.07  -0.00  -0.00
   5   6    -0.07  -0.01  -0.00    -0.00  -0.00  -0.01     0.00   0.00   0.00
   6   1    -0.03   0.04  -0.00    -0.00   0.00  -0.00     0.00  -0.00   0.00
   7   6    -0.10  -0.00  -0.00    -0.00  -0.00   0.00     0.00   0.00  -0.00
   8   1     0.38   0.01   0.02     0.01  -0.00   0.00    -0.00   0.00  -0.00
   9   1    -0.02   0.00  -0.00    -0.00   0.01  -0.00     0.00  -0.00   0.00
  10   6    -0.11   0.12  -0.01     0.00   0.00  -0.00     0.00  -0.00   0.00
  11   1     0.20   0.02   0.01    -0.00  -0.00   0.00    -0.00  -0.00  -0.00
  12   1     0.16  -0.44   0.03    -0.00   0.00   0.00    -0.00   0.00  -0.00
  13   1     0.29   0.01   0.02     0.00  -0.00  -0.00    -0.00   0.00  -0.00
  14   6    -0.12   0.00  -0.00    -0.00  -0.00   0.00     0.00  -0.00  -0.00
  15   1    -0.02   0.02  -0.00    -0.00   0.00  -0.00    -0.00   0.00   0.00
  16   1     0.44  -0.02   0.01     0.00  -0.00   0.00     0.00  -0.00  -0.00
  17   6    -0.10  -0.01   0.00     0.00  -0.00   0.00     0.00  -0.00   0.00
  18   1    -0.01   0.00  -0.01     0.00   0.00  -0.00     0.00   0.00  -0.00
  19   1     0.34   0.01  -0.00    -0.00  -0.00   0.00    -0.01  -0.00   0.00
  20   6    -0.06  -0.05   0.06     0.00   0.00   0.00     0.00   0.00   0.00
  21   1     0.10   0.18  -0.22     0.00   0.00  -0.00    -0.00  -0.00   0.00
  22   1     0.11  -0.00   0.01    -0.00  -0.00   0.00    -0.01  -0.00   0.00
  23   6     0.02   0.01  -0.01     0.00   0.02   0.02     0.02   0.12   0.10
  24   1    -0.05   0.00  -0.00    -0.07   0.00  -0.00    -0.49   0.00  -0.02
  25   1     0.00   0.00  -0.00     0.04  -0.10  -0.01     0.27  -0.68  -0.07
  26   1    -0.01  -0.03   0.03     0.02   0.04  -0.05     0.15   0.25  -0.29
