 Entering Gaussian System
 *********************************************
 Gaussian 98:
 frequency output generated by the xtb code
 *********************************************
                         Standard orientation:
 --------------------------------------------------------------------
  Center     Atomic     Atomic              Coordinates (Angstroms)
  Number     Number      Type              X           Y           Z
 --------------------------------------------------------------------
    1          6             0       -3.346249   -1.252227    6.155687
    2          8             0       -2.156987   -1.428955    6.155692
    3          8             0       -3.914577   -0.043046    6.155650
    4          6             0       -4.390679   -2.338190    6.155729
    5          1             0       -5.019451   -2.234560    7.036335
    6          1             0       -5.019544   -2.234548    5.275192
    7          1             0       -3.906041   -3.309263    6.155701
    8          6             0       -3.029237    1.079307    6.155628
    9          1             0       -2.387575    1.022195    7.042024
   10          1             0       -2.387552    1.022146    5.269253
   11          6             0       -3.862082    2.347115    6.155584
   12          1             0       -3.207360    3.213530    6.155657
   13          1             0       -4.495082    2.379043    5.273023
   14          1             0       -4.495223    2.379000    7.038046
 --------------------------------------------------------------------
     1 basis functions        1 primitive gaussians
     1 alpha electrons        1 beta electrons
 
 Harmonic frequencies (cm**-1), IR intensities (KM/Mole),
 Raman scattering activities (A**4/amu), Raman depolarization ratios,
 reduced masses (AMU), force constants (mDyne/A) and normal coordinates:
                      1                      2                      3
                        a                      a                      a 
 Frequencies --   -38.8612                22.6674               150.2713
 Red. masses --     1.5290                10.1885                 5.9768
 Frc consts  --     0.0000                 0.0000                 0.0000
 IR Inten    --     0.0134                 0.1384                 0.2171
 Raman Activ --     0.0000                 0.0000                 0.0000
 Depolar     --     0.0000                 0.0000                 0.0000
 Atom AN      X      Y      Z        X      Y      Z        X      Y      Z
   1   6     0.00  -0.00   0.02     0.00  -0.00  -0.02     0.00  -0.00   0.12
   2   8     0.00   0.00  -0.13     0.00  -0.00  -0.38     0.00   0.00   0.15
   3   8    -0.00   0.00   0.12     0.00   0.00   0.46    -0.00   0.00   0.44
   4   6    -0.00  -0.00   0.00    -0.00  -0.00  -0.06    -0.00  -0.00  -0.34
   5   1    -0.37   0.32  -0.31    -0.01  -0.01  -0.02    -0.02  -0.11  -0.10
   6   1     0.37  -0.32  -0.31     0.01   0.01  -0.02     0.02   0.11  -0.10
   7   1     0.00  -0.00   0.53    -0.00  -0.00  -0.03    -0.00  -0.00  -0.20
   8   6     0.00  -0.00  -0.05     0.00   0.00   0.43    -0.00  -0.00  -0.15
   9   1     0.04   0.00  -0.04    -0.13   0.09   0.22     0.11   0.05  -0.12
  10   1    -0.04  -0.00  -0.04     0.13  -0.09   0.22    -0.11  -0.05  -0.12
  11   6     0.00   0.00   0.06    -0.00  -0.00  -0.40     0.00   0.00  -0.10
  12   1     0.00  -0.00  -0.02    -0.00   0.00  -0.10     0.00   0.00  -0.43
  13   1    -0.04  -0.00   0.05     0.13  -0.08  -0.21    -0.29  -0.19   0.17
  14   1     0.04   0.00   0.05    -0.13   0.08  -0.21     0.29   0.19   0.17
                      4                      5                      6
                        a                      a                      a 
 Frequencies --   172.1606               224.5038               350.4278
 Red. masses --    10.7154                 5.8451                10.8929
 Frc consts  --     0.0000                 0.0000                 0.0000
 IR Inten    --     0.3149                 0.2125                 0.3576
 Raman Activ --     0.0000                 0.0000                 0.0000
 Depolar     --     0.0000                 0.0000                 0.0000
 Atom AN      X      Y      Z        X      Y      Z        X      Y      Z
   1   6    -0.15   0.04  -0.00    -0.00   0.00   0.15     0.04  -0.12   0.00
   2   8    -0.11   0.42  -0.00    -0.00   0.00   0.04    -0.01  -0.52   0.00
   3   8    -0.39  -0.04  -0.00    -0.00   0.00   0.44     0.07  -0.05  -0.00
   4   6     0.23  -0.31   0.00     0.00  -0.00  -0.16     0.11  -0.22   0.00
   5   1     0.06  -0.16   0.00    -0.03  -0.07  -0.06     0.03  -0.11   0.00
   6   1     0.06  -0.16  -0.00     0.03   0.07  -0.06     0.03  -0.11  -0.00
   7   1     0.18  -0.04   0.00     0.00   0.00  -0.11     0.09  -0.03   0.00
   8   6    -0.12  -0.19   0.00     0.00  -0.00  -0.35    -0.25   0.29  -0.00
   9   1    -0.03  -0.11  -0.00     0.15   0.05  -0.21    -0.07   0.11  -0.00
  10   1    -0.03  -0.11   0.00    -0.15  -0.05  -0.21    -0.07   0.11   0.00
  11   6     0.41   0.14  -0.00     0.00  -0.00  -0.04    -0.01   0.54  -0.00
  12   1     0.24  -0.05   0.00    -0.00  -0.00   0.41     0.11   0.07   0.00
  13   1     0.12   0.13  -0.00     0.24   0.25  -0.17     0.01   0.24  -0.00
  14   1     0.12   0.13   0.00    -0.24  -0.25  -0.17     0.01   0.24   0.00
                      7                      8                      9
                        a                      a                      a 
 Frequencies --   405.3867               581.7366               626.1162
 Red. masses --     9.9284                 9.6051                11.8988
 Frc consts  --     0.0000                 0.0000                 0.0000
 IR Inten    --     0.1146                 0.6028                 0.3030
 Raman Activ --     0.0000                 0.0000                 0.0000
 Depolar     --     0.0000                 0.0000                 0.0000
 Atom AN      X      Y      Z        X      Y      Z        X      Y      Z
   1   6    -0.28   0.14  -0.00     0.00  -0.00  -0.73    -0.05  -0.33   0.00
   2   8    -0.37  -0.12   0.00     0.00   0.00   0.31     0.07   0.46  -0.00
   3   8     0.14   0.36   0.00    -0.00  -0.00   0.29     0.31  -0.14  -0.00
   4   6     0.16  -0.30  -0.00    -0.00   0.00  -0.05    -0.40  -0.41   0.00
   5   1     0.03  -0.24   0.00     0.22   0.25   0.12    -0.11  -0.06  -0.00
   6   1     0.03  -0.24  -0.00    -0.22  -0.25   0.12    -0.11  -0.06   0.00
   7   1     0.27   0.02  -0.00    -0.00  -0.00   0.17    -0.22  -0.17   0.00
   8   6     0.37   0.18  -0.00     0.00   0.00   0.01     0.16   0.19   0.00
   9   1     0.10   0.05   0.00     0.06   0.03  -0.04     0.05   0.09   0.00
  10   1     0.10   0.05  -0.00    -0.06  -0.03  -0.04     0.05   0.09  -0.00
  11   6    -0.07  -0.12  -0.00     0.00   0.00  -0.01    -0.04   0.17   0.00
  12   1    -0.17   0.07  -0.00    -0.00   0.00   0.00    -0.03   0.07   0.00
  13   1    -0.03  -0.15   0.00     0.01  -0.00  -0.01    -0.01   0.04   0.00
  14   1    -0.03  -0.15  -0.00    -0.01   0.00  -0.01    -0.01   0.04  -0.00
                     10                     11                     12
                        a                      a                      a 
 Frequencies --   822.4561               889.7811               967.6685
 Red. masses --     2.1021                 8.8822                12.1556
 Frc consts  --     0.0000                 0.0000                 0.0000
 IR Inten    --     0.0685                 0.5328                 0.2337
 Raman Activ --     0.0000                 0.0000                 0.0000
 Depolar     --     0.0000                 0.0000                 0.0000
 Atom AN      X      Y      Z        X      Y      Z        X      Y      Z
   1   6     0.00  -0.00   0.02     0.13  -0.08   0.00    -0.25  -0.25   0.00
   2   8     0.00  -0.00  -0.01     0.18  -0.13  -0.00    -0.40   0.13  -0.00
   3   8    -0.00   0.00  -0.10    -0.56   0.04  -0.00     0.13  -0.48   0.00
   4   6     0.00  -0.00   0.01     0.05  -0.15   0.00     0.36   0.28  -0.00
   5   1    -0.01  -0.01  -0.00     0.02   0.12  -0.01     0.11   0.18  -0.00
   6   1     0.01   0.01  -0.00     0.02   0.12   0.01     0.11   0.18   0.00
   7   1    -0.00  -0.00  -0.01    -0.22  -0.15   0.00     0.04   0.05  -0.00
   8   6     0.00   0.00   0.27     0.26   0.18   0.00     0.20  -0.01   0.00
   9   1     0.37  -0.24  -0.22     0.04  -0.10   0.01     0.05  -0.03  -0.00
  10   1    -0.37   0.24  -0.22     0.04  -0.10  -0.01     0.05  -0.03   0.00
  11   6    -0.00   0.00   0.11     0.12   0.22   0.00    -0.06   0.24  -0.00
  12   1    -0.00   0.00  -0.15    -0.32   0.32   0.00    -0.12   0.14  -0.00
  13   1     0.25  -0.32  -0.17    -0.01  -0.21   0.02    -0.03   0.01   0.01
  14   1    -0.25   0.32  -0.17    -0.01  -0.21  -0.02    -0.03   0.01  -0.01
                     13                     14                     15
                        a                      a                      a 
 Frequencies --  1002.4303              1006.7559              1088.6396
 Red. masses --     5.8138                 5.7826                10.3454
 Frc consts  --     0.0000                 0.0000                 0.0000
 IR Inten    --     0.6712                 0.4678                 0.7946
 Raman Activ --     0.0000                 0.0000                 0.0000
 Depolar     --     0.0000                 0.0000                 0.0000
 Atom AN      X      Y      Z        X      Y      Z        X      Y      Z
   1   6     0.08   0.14  -0.00    -0.00  -0.00  -0.49     0.01   0.04  -0.00
   2   8     0.16   0.02   0.00    -0.00  -0.00   0.10     0.02  -0.01   0.00
   3   8    -0.01  -0.33   0.00     0.00   0.00   0.07     0.23   0.35  -0.00
   4   6    -0.34   0.24   0.00     0.00  -0.00   0.42     0.02  -0.10   0.00
   5   1    -0.10  -0.32   0.03    -0.36  -0.34  -0.12     0.00   0.03  -0.01
   6   1    -0.10  -0.32  -0.03     0.36   0.34  -0.12     0.00   0.03   0.01
   7   1     0.40   0.30  -0.00    -0.00  -0.00  -0.21    -0.09  -0.07   0.00
   8   6     0.04  -0.06   0.00    -0.00   0.00   0.01     0.01  -0.64   0.00
   9   1     0.00  -0.12  -0.00     0.01   0.00  -0.00     0.04  -0.25  -0.02
  10   1     0.00  -0.12   0.00    -0.01  -0.00  -0.00     0.04  -0.25   0.02
  11   6     0.06   0.21  -0.00    -0.00  -0.00  -0.01    -0.22   0.38  -0.00
  12   1    -0.20   0.22  -0.00     0.00  -0.00   0.00    -0.13   0.15  -0.00
  13   1    -0.02  -0.10   0.01    -0.01   0.01   0.00    -0.08   0.08   0.01
  14   1    -0.02  -0.10  -0.01     0.01  -0.01   0.00    -0.08   0.08  -0.01
                     16                     17                     18
                        a                      a                      a 
 Frequencies --  1127.4943              1142.9321              1208.5970
 Red. masses --     8.5820                 5.1400                11.5278
 Frc consts  --     0.0000                 0.0000                 0.0000
 IR Inten    --     0.6214                 0.2960                 2.2713
 Raman Activ --     0.0000                 0.0000                 0.0000
 Depolar     --     0.0000                 0.0000                 0.0000
 Atom AN      X      Y      Z        X      Y      Z        X      Y      Z
   1   6     0.04   0.07   0.00    -0.00   0.00  -0.02     0.04   0.78  -0.00
   2   8     0.11  -0.04  -0.00    -0.00  -0.00   0.01    -0.12  -0.05   0.00
   3   8    -0.33  -0.12   0.00     0.00  -0.00   0.18     0.15  -0.41  -0.00
   4   6    -0.06   0.03  -0.00     0.00  -0.00  -0.00     0.01  -0.25  -0.00
   5   1    -0.02  -0.04   0.00     0.00   0.00  -0.00    -0.02   0.06  -0.02
   6   1    -0.02  -0.04  -0.00    -0.00  -0.00  -0.00    -0.02   0.06   0.02
   7   1     0.04   0.03   0.00    -0.00  -0.00  -0.00    -0.26  -0.18  -0.00
   8   6     0.57  -0.01  -0.00    -0.00  -0.00  -0.48     0.00   0.05   0.00
   9   1     0.12  -0.03   0.01    -0.35  -0.22   0.12    -0.01  -0.07  -0.00
  10   1     0.12  -0.03  -0.01     0.35   0.22   0.12    -0.01  -0.07   0.00
  11   6    -0.42   0.01   0.00     0.00   0.00   0.31     0.01   0.02   0.00
  12   1     0.24  -0.24  -0.00    -0.00   0.00  -0.15    -0.02   0.03   0.00
  13   1    -0.04   0.32  -0.03     0.21  -0.26  -0.09     0.00  -0.00  -0.00
  14   1    -0.04   0.32   0.03    -0.21   0.26  -0.09     0.00  -0.00   0.00
                     19                     20                     21
                        a                      a                      a 
 Frequencies --  1239.2140              1327.8566              1366.1090
 Red. masses --     2.1851                 3.8435                 3.4400
 Frc consts  --     0.0000                 0.0000                 0.0000
 IR Inten    --     0.0470                 0.0925                 0.4564
 Raman Activ --     0.0000                 0.0000                 0.0000
 Depolar     --     0.0000                 0.0000                 0.0000
 Atom AN      X      Y      Z        X      Y      Z        X      Y      Z
   1   6    -0.00  -0.00  -0.00     0.03   0.10   0.00    -0.01  -0.07   0.00
   2   8     0.00   0.00  -0.00    -0.00  -0.01  -0.00    -0.03   0.01  -0.00
   3   8    -0.00   0.00  -0.12    -0.13  -0.06  -0.00     0.01   0.01   0.00
   4   6     0.00   0.00   0.01     0.02   0.02  -0.00     0.34   0.31  -0.00
   5   1    -0.01  -0.00  -0.00    -0.03  -0.05  -0.02    -0.30  -0.37  -0.20
   6   1     0.01   0.00  -0.00    -0.03  -0.05   0.02    -0.30  -0.37   0.20
   7   1     0.00   0.00  -0.00    -0.07  -0.03   0.00    -0.44  -0.20   0.00
   8   6     0.00   0.00  -0.08     0.08  -0.44   0.00    -0.01   0.06  -0.00
   9   1     0.04   0.61  -0.01     0.03   0.58   0.03     0.00  -0.06  -0.00
  10   1    -0.04  -0.61  -0.01     0.03   0.58  -0.03     0.00  -0.06   0.00
  11   6    -0.00  -0.00   0.28     0.12   0.03  -0.00    -0.02   0.01  -0.00
  12   1     0.00   0.00  -0.09    -0.15   0.14   0.00     0.03  -0.02   0.00
  13   1     0.17  -0.19  -0.06    -0.05   0.05   0.06     0.01  -0.02  -0.01
  14   1    -0.17   0.19  -0.06    -0.05   0.05  -0.06     0.01  -0.02   0.01
                     22                     23                     24
                        a                      a                      a 
 Frequencies --  1402.0025              1445.2755              1445.3231
 Red. masses --     3.3651                 1.5885                 1.6239
 Frc consts  --     0.0000                 0.0000                 0.0000
 IR Inten    --     0.0982                 0.0928                 0.2366
 Raman Activ --     0.0000                 0.0000                 0.0000
 Depolar     --     0.0000                 0.0000                 0.0000
 Atom AN      X      Y      Z        X      Y      Z        X      Y      Z
   1   6     0.01   0.03  -0.00    -0.00   0.00  -0.04     0.02  -0.01  -0.00
   2   8    -0.00  -0.00   0.00     0.00  -0.00   0.00    -0.05   0.00   0.00
   3   8    -0.03  -0.03  -0.00     0.00  -0.00   0.01    -0.00   0.01   0.00
   4   6    -0.02  -0.01  -0.00     0.00  -0.00  -0.23    -0.11   0.20  -0.00
   5   1     0.02   0.00   0.01     0.06  -0.44   0.07     0.44  -0.29   0.36
   6   1     0.02   0.01  -0.01    -0.08   0.44   0.08     0.44  -0.27  -0.35
   7   1     0.00   0.00   0.00     0.01   0.00   0.73    -0.35  -0.14   0.01
   8   6     0.02  -0.10   0.00     0.00  -0.00   0.00    -0.01   0.01   0.00
   9   1     0.05   0.11  -0.02     0.00   0.00   0.00     0.02  -0.01  -0.01
  10   1     0.05   0.11   0.02    -0.00  -0.00  -0.00     0.02  -0.01   0.01
  11   6    -0.20   0.40   0.00    -0.00   0.00   0.00     0.00  -0.01   0.00
  12   1     0.43  -0.29  -0.00     0.00  -0.00  -0.01    -0.00   0.00  -0.00
  13   1     0.11  -0.46  -0.11     0.00   0.01  -0.00    -0.01   0.01   0.01
  14   1     0.11  -0.46   0.11    -0.00  -0.01  -0.00    -0.01   0.01  -0.01
                     25                     26                     27
                        a                      a                      a 
 Frequencies --  1474.9353              1475.2231              1491.5206
 Red. masses --     1.5288                 1.8538                 1.5784
 Frc consts  --     0.0000                 0.0000                 0.0000
 IR Inten    --     0.0441                 0.0727                 0.0402
 Raman Activ --     0.0000                 0.0000                 0.0000
 Depolar     --     0.0000                 0.0000                 0.0000
 Atom AN      X      Y      Z        X      Y      Z        X      Y      Z
   1   6     0.00   0.00   0.00    -0.01   0.01  -0.00     0.00  -0.00   0.00
   2   8    -0.00  -0.00  -0.00     0.01  -0.01   0.00     0.00  -0.00  -0.00
   3   8    -0.00  -0.00  -0.00    -0.05  -0.03   0.00    -0.00  -0.00  -0.00
   4   6     0.00  -0.00   0.00     0.00  -0.01   0.00     0.00  -0.00  -0.00
   5   1    -0.00   0.01  -0.00    -0.01   0.01  -0.01    -0.00   0.00  -0.00
   6   1     0.00  -0.01  -0.00    -0.01   0.01   0.01    -0.00   0.00   0.00
   7   1     0.00   0.00  -0.01     0.01   0.01  -0.00     0.00   0.00   0.00
   8   6    -0.00   0.00   0.04    -0.26   0.05  -0.00     0.05   0.05   0.00
   9   1     0.02  -0.02  -0.00     0.55   0.00  -0.40    -0.03  -0.04   0.03
  10   1    -0.02   0.02   0.00     0.55   0.00   0.40    -0.03  -0.04  -0.03
  11   6     0.00  -0.00   0.21     0.03  -0.03  -0.00     0.20   0.07   0.00
  12   1    -0.00   0.00  -0.72    -0.02   0.01   0.00     0.23  -0.15  -0.00
  13   1     0.16   0.43  -0.08    -0.04   0.03   0.03    -0.53  -0.09   0.39
  14   1    -0.16  -0.43  -0.08    -0.04   0.03  -0.03    -0.52  -0.09  -0.39
                     28                     29                     30
                        a                      a                      a 
 Frequencies --  1781.5690              2923.1464              2944.9331
 Red. masses --    13.3514                 1.9837                 1.4582
 Frc consts  --     0.0000                 0.0000                 0.0000
 IR Inten    --     2.4972                 0.2478                 0.2228
 Raman Activ --     0.0000                 0.0000                 0.0000
 Depolar     --     0.0000                 0.0000                 0.0000
 Atom AN      X      Y      Z        X      Y      Z        X      Y      Z
   1   6    -0.79   0.09  -0.00    -0.00   0.00   0.00     0.00  -0.00  -0.00
   2   8     0.59  -0.08   0.00     0.00  -0.00  -0.00    -0.00   0.00  -0.00
   3   8     0.05  -0.04   0.00    -0.00  -0.00  -0.01     0.01   0.01  -0.00
   4   6     0.06   0.03  -0.00     0.00  -0.00   0.00    -0.00   0.00   0.00
   5   1     0.03   0.02   0.02     0.00  -0.00  -0.00     0.00  -0.00  -0.00
   6   1     0.03   0.02  -0.02    -0.00   0.00  -0.00     0.00  -0.00   0.00
   7   1    -0.05  -0.02   0.00    -0.00   0.00   0.00    -0.00  -0.00   0.00
   8   6    -0.01  -0.00   0.00    -0.00   0.00  -0.30     0.20  -0.03  -0.00
   9   1    -0.01   0.02   0.00     0.41  -0.04   0.54    -0.37   0.03  -0.58
  10   1    -0.01   0.02  -0.00    -0.41   0.04   0.54    -0.38   0.03   0.58
  11   6     0.01   0.01   0.00    -0.00   0.00   0.01    -0.01  -0.01   0.00
  12   1    -0.00   0.00  -0.00    -0.00  -0.00   0.00     0.01   0.02   0.00
  13   1     0.00  -0.01  -0.00    -0.03   0.00  -0.04     0.02  -0.00   0.03
  14   1     0.00  -0.01   0.00     0.03  -0.00  -0.04     0.02  -0.00  -0.03
                     31                     32                     33
                        a                      a                      a 
 Frequencies --  3037.9787              3042.9050              3051.3372
 Red. masses --     1.9521                 1.3807                 1.9640
 Frc consts  --     0.0000                 0.0000                 0.0000
 IR Inten    --     0.0611                 0.0505                 0.1781
 Raman Activ --     0.0000                 0.0000                 0.0000
 Depolar     --     0.0000                 0.0000                 0.0000
 Atom AN      X      Y      Z        X      Y      Z        X      Y      Z
   1   6     0.00  -0.00  -0.01    -0.01  -0.00  -0.00     0.00   0.00   0.00
   2   8    -0.00   0.00   0.00     0.00  -0.00   0.00    -0.00   0.00  -0.00
   3   8    -0.00   0.00   0.00     0.00  -0.00   0.00     0.00   0.00  -0.00
   4   6     0.00   0.00  -0.29    -0.18  -0.00  -0.00     0.00   0.00   0.00
   5   1    -0.41   0.07   0.54     0.37  -0.07  -0.56     0.01  -0.00  -0.01
   6   1     0.40  -0.07   0.53     0.38  -0.07   0.57    -0.01   0.00  -0.01
   7   1     0.00  -0.00  -0.04    -0.10   0.15  -0.00     0.00  -0.00   0.00
   8   6     0.00  -0.00  -0.00    -0.00   0.00   0.00     0.00  -0.00   0.03
   9   1     0.00   0.00   0.00     0.00   0.00   0.00    -0.02   0.00  -0.03
  10   1    -0.00  -0.00   0.00     0.00   0.00  -0.00     0.02  -0.00  -0.03
  11   6    -0.00  -0.00   0.00     0.01   0.00   0.00     0.00  -0.00   0.29
  12   1     0.00   0.00   0.00    -0.01  -0.01   0.00     0.00   0.00   0.04
  13   1    -0.01   0.00  -0.01    -0.01   0.00  -0.02    -0.41   0.01  -0.54
  14   1     0.01  -0.00  -0.01    -0.01   0.00   0.02     0.40  -0.01  -0.53
                     34                     35                     36
                        a                      a                      a 
 Frequencies --  3053.0995              3056.3242              3071.0039
 Red. masses --     1.2553                 1.9520                 1.8407
 Frc consts  --     0.0000                 0.0000                 0.0000
 IR Inten    --     0.1124                 0.1726                 0.0977
 Raman Activ --     0.0000                 0.0000                 0.0000
 Depolar     --     0.0000                 0.0000                 0.0000
 Atom AN      X      Y      Z        X      Y      Z        X      Y      Z
   1   6     0.00   0.00  -0.00    -0.00   0.00   0.00     0.01  -0.01  -0.00
   2   8    -0.00   0.00   0.00     0.00  -0.00  -0.00    -0.00   0.00   0.00
   3   8     0.00   0.00   0.00     0.00  -0.00   0.00    -0.00   0.00  -0.00
   4   6     0.00   0.00  -0.00    -0.00  -0.00   0.00     0.15  -0.23  -0.00
   5   1    -0.01   0.00   0.01     0.01  -0.00  -0.02    -0.05  -0.02   0.10
   6   1    -0.01   0.00  -0.01     0.01  -0.00   0.02    -0.05  -0.02  -0.10
   7   1     0.01  -0.01  -0.00    -0.01   0.02   0.00    -0.43   0.85   0.00
   8   6     0.01  -0.01  -0.00    -0.02  -0.00   0.00     0.00   0.00   0.00
   9   1    -0.01   0.00  -0.02     0.02  -0.00   0.02    -0.00  -0.00  -0.00
  10   1    -0.01   0.00   0.02     0.02  -0.00  -0.03    -0.00  -0.00   0.00
  11   6     0.11  -0.10  -0.00    -0.23  -0.17   0.00     0.01   0.00  -0.00
  12   1     0.30   0.37  -0.00     0.51   0.67   0.00    -0.01  -0.01   0.00
  13   1    -0.34   0.00  -0.50     0.16  -0.03   0.27    -0.01   0.00  -0.01
  14   1    -0.35   0.00   0.51     0.16  -0.03  -0.28    -0.01   0.00   0.01
