 
        ______________________________________
       |                                      |
       |           ==================         |
       |                 x T B                |
       |           ==================         |
       |               S. Grimme              |
       |        Universitaet Bonn, MCTC       |
       |         2015-18, Version 5.8.1       |
       |      Sun May  6 11:39:08 CEST 2018   |
       |______________________________________|
 
        This code comes without any warranty
        for non-commercial, academia use only.
        Preliminary GFN2 test version.
        Test license to: Dow Chemical Company
        Cite GFN-xTB work as:
        S. Grimme, C. Bannwarth, P. Shushkov
        JCTC, 13 (2017) 1989-2009
        for GFN2:
        C. Bannwarth, S. Ehlert, S. Grimme
        to be published.
        sTDA-xTB:
        S. Grimme  &  C. Bannwarth, JCP 145 (2016) 054103
        in the mass-spec context additionally:
        V. Asgeirsson, C.Bauer, S. Grimme, Chem. Sci. 8 (2017) 4879
 
        with help from
        P. Shushkov, G. Brandenburg, S. Dohm, J. Pisarek,
        F. März, M. Checinski, S. Ehrlich, S. Spicher, 
        P. Pracht, E. Caldeweyher, S. Ehlert, and C. Bannwarth.
 
        usage        :
        xtb <coord_file> [options]
        where <coord_file> is a valid file of TM)
        (*coord, Bohr) or xmol (*xyz, Angstroem)
        format.

        options:
        -chrg <int>   : molecular charge
        -uhf  <int>   : # of unpaired electrons(=2*S)
        -nox          : skip second, extended part in sTDA-xTB
        -pop          : do population analysis
                      : (default for -nox)
        -mowr <real>  : cut MO write above (def.3 Eh)
        -molden       : write formatted molden file
        -parx <file>  : read parameters for sTDA-xTB
                        calc (def:~/.param_stda2.xtb)
        -parv <file>  : read parameters for vTB part in
                        sTDA-xTB (def: ~/.param_stda1.xtb)
        -xtemp <real> : el. temp for xTB (def. 0 K)
        -etemp <real> : el. temp for GFN (def. 300 K)
        -fod          : calculate the FOD and write
                        molden.input file with
                        appropriate occupations
                        for plotting. Def. T=12500 K
 
        -gfn1         : use GFN-xTB
        -gfn2         : use GFN2-xTB
        -gfn2d3       : GFN2-xTB with D3 instead of D4
        -grad         : GFNn-xTB gradient
        -acc <real>   : GFNn-xTB accuracy (def. 1.0)
        -opt [level]  : optimize at GFNn-xTB
                      : level=crude,vloose,loose,
                      :       tight,vtight
        -hess         : compute Hessian at GFNn-xTB
        -ohess        : optimize and compute Hessian
        -omd          : optimize and do MD
        -siman        : conformational search
        -screen       : opt. loop over ensemble
        -gmd          : annealed MD for GMD procedure
        -modef        : vib mode following
        -gbsa [string1] [string2]
                        use GBSA implicit solvent
                        for solvent [string1] and
                        solvation state [string2]=
                        reference, bar1M (default=1M)
        additional GFN/opt/MD/siman options read from
        $XTBHOME/.xtbrc or $set in coordinate file
 
       spin and charge state information can be on:
       <.CHRG> (charge) and <.UHF> (=nalpha-nbeta)
       -uhf and -chrg override the file info.
       useful machine settings:
       setenv MKL_NUM_THREADS <NCORE_ON_YOUR_MACHINE>
       setenv OMP_STACKSIZE 500m
       limit stacksize unlimited
 
       total energies in Eh, gaps/HL energies in eV
       please read REVISION and HOWTO files carefully
          72  days left until this code expires
 =============================
  # OMP threads =           2
 =============================
 
 xtbhome directory:/home/ua25450/dftb/
 
 argument            1 :-ohess
 
 name of molecule           :
 comment line               :
 number of atoms            :    12
 number of electrons        :    26
 charge                     :  0
 spin                       : 0.0
 first test random number   :  0.7775
 
 
 -----------------------------------------
  G F N (Geometry, Frequency, Non-covalent)
        parametrization, gfnver=           3
     D4 dispersion model
 /home/ua25450/dftb/.param_gfn2.xtb
 -----------------------------------------
      method parameters     
 k(s)        :  1.8500
 k(p)        :  2.2300
 k(d)        :  2.2300
 k(f)        :  2.0000
 kEN (H0ij)  : -2.0000
 D3 a1       :  0.5200
 D3 a2       :  5.0000
 D3 s8       :  2.7000
 D3atm       :  5.0000
 alphaj      :  2.0000
 
     -------------------------
     ! NO SOLVENT MODEL USED !
     -------------------------
 
 doing EN charges ...
 sum q :  0.2220446D-15
 point charge moment (au)
     X       Y       Z   
   0.2285  -0.1260   0.0002  total (Debye):    0.663
 
            Z     q(EN)     CN     RAES       Cart. coordinates
     1  C   4.0   -0.13    4.06    3.72    -5.94600    -0.42319    -0.00532
     2  H   1.0    0.05    1.00    1.43    -5.28589    -2.36695    -0.04051
     3  H   1.0    0.05    1.00    1.43    -5.26109     0.54767    -1.68198
     4  H   1.0    0.05    1.00    1.43    -7.99896    -0.40359    -0.03598
     5  C   4.0    0.01    4.03    3.67    -5.00634     0.91414     2.37645
     6  H   1.0    0.04    1.01    1.43    -2.92992     0.90233     2.37849
     7  C   4.0   -0.13    4.06    3.72    -5.94976    -0.42102     4.75795
     8  H   1.0    0.05    1.00    1.43    -5.29043    -2.36504     4.79559
     9  H   1.0    0.05    1.00    1.43    -5.26707     0.55099     6.43478
    10  H   1.0    0.05    1.00    1.43    -8.00273    -0.40066     4.78526
    11  O   6.0   -0.17    2.07    1.83    -5.90918     3.44959     2.37468
    12  H   1.0    0.11    1.01    1.43    -4.51875     4.61202     2.37515
 
  Z AO/shell   Hii/eV     exponent
  1     Wed Apr 25 08:07:45 CEST 2018   EN: 2.200 GM2: 0.406  GM3: 0.0800  RAES: 1.40
     1s    -10.707211    1.230000
  6     Wed Apr 25 08:07:45 CEST 2018   EN: 2.550 GM2: 0.538  GM3: 0.1500  RAES: 3.00
     2s    -13.970922    2.096432
     2p    -10.063292    1.800000
  8     Wed Apr 25 08:07:45 CEST 2018   EN: 3.440 GM2: 0.452  GM3:-0.0517  RAES: 1.80
     2s    -20.229985    2.439742
     2p    -15.503117    2.137023
 
Molecule has the following symmetry elements: (sigma) 
It seems to be the Cs point group
cs  symmetry found (for desy threshold:  0.10E+00) used in thermo
 no old-style atom pair restraing (fixing) potential
 
             =======================================
             |                                     |
             |        S C C  calculation           |
             |                                     |
             =======================================
 #proc     :            2
 Ncao      :           24
 Nao       :           24
 Nel       :           26
 T(el)     :   300.0
 intcut    :    25.0
 scfconv   :  0.100E-05
   qconv   :  0.100E-03
 intneglect:  0.100E-07
 broydamp  :      0.400
 Nshell    :           16
  q data taken from xtbrestart
  CAMM data taken from xtbrestart
 iter      E             dE          RMSdq      gap      omega  full diag
   1    -14.7288882 -0.147289E+02  0.781E-07   12.03       0.0  T
   2    -14.7288882  0.177636E-14  0.427E-07   12.03   67618.1  T
   3    -14.7288882 -0.106581E-13  0.153E-07   12.03  100000.0  T
speedup  1.00
cpu  time for SCC    0.00 s
wall time for SCC    0.00 s

          eigenvalues
 #    :           1          2          3          4          5          6          7          8
 occ. :        2.000      2.000      2.000      2.000      2.000      2.000      2.000      2.000
 eps  :       -18.524    -17.099    -16.140    -15.603    -15.364    -13.906    -13.695    -13.193
 #    :           9         10         11         12         13         14         15         16
 occ. :        2.000      2.000      2.000      2.000      2.000      0.000      0.000      0.000
 eps  :       -12.612    -12.562    -12.299    -11.719    -11.038      0.991      2.626      3.380
 #    :          17         18         19         20         21         22         23         24
 occ. :        0.000      0.000      0.000      0.000      0.000      0.000      0.000      0.000
 eps  :         3.624      4.513      5.403      5.435      6.404      6.781      6.951      8.418
 

   #   Z            q   n(s)   n(p)   n(d)      C6AA      α(0)    relVol
   1   6 C     -0.116  1.042  3.075  0.000    22.894     6.838     0.553
   2   1 H      0.037  0.963  0.000  0.000     2.483     2.464     0.487
   3   1 H      0.043  0.957  0.000  0.000     2.408     2.427     0.480
   4   1 H      0.054  0.946  0.000  0.000     2.263     2.353     0.465
   5   6 C      0.126  1.042  2.832  0.000    18.762     6.212     0.503
   6   1 H      0.006  0.994  0.000  0.000     2.949     2.685     0.531
   7   6 C     -0.116  1.042  3.075  0.000    22.894     6.838     0.553
   8   1 H      0.037  0.963  0.000  0.000     2.483     2.464     0.487
   9   1 H      0.043  0.957  0.000  0.000     2.408     2.426     0.480
  10   1 H      0.054  0.946  0.000  0.000     2.263     2.353     0.465
  11   8 O     -0.450  1.709  4.741  0.000    22.354     6.397     1.231
  12   1 H      0.283  0.717  0.000  0.000     0.713     1.326     0.262

 Mol. C6AA /au*bohr^6 :        923.130027
 Mol. C8AA /au*bohr^6 :      18722.421899
 Mol. a(0) /au        :         44.780996

 
 Wiberg/Mayer (AO) data. WBOs > 0.1 written file <wbo>
 largest (>0.05) Wiberg bond orders for each atom
           total WBO             WBO to atom ...
     1  C   3.995    C    5 1.002    H    3 0.986    H    2 0.986    H    4 0.985
     2  H   0.999    C    1 0.986
     3  H   0.998    C    1 0.986
     4  H   0.997    C    1 0.985
     5  C   3.956    C    1 1.002    C    7 1.002    O   11 0.978    H    6 0.971
     6  H   1.000    C    5 0.971
     7  C   3.995    C    5 1.002    H    9 0.986    H    8 0.986    H   10 0.985
     8  H   0.999    C    7 0.986
     9  H   0.998    C    7 0.986
    10  H   0.997    C    7 0.985
    11  O   1.953    C    5 0.978    H   12 0.909
    12  H   0.920    O   11 0.909
 
molecular dipole:
                 x           y           z       tot (Debye)
 q only:        0.411      -0.198       0.000
   full:        0.691      -0.175       0.001       1.755
molecular quadrupole (traceless):
                xx          xy          yy          xz          yz          zz
 q only:       -4.792       4.672       2.439       1.461      -0.703       2.353
  q+dip:       -6.778       5.996       3.467       2.377      -0.619       3.311
   full:       -7.145       5.973       3.916       2.376      -0.619       3.229
 SCC converged in            3  cycles
 
SCC energy    :     -14.7288882
rep           :       0.1700699
ES            :       0.0277244
AES           :       0.0041295
AXC           :       0.0041564
disp          :      -0.0049540
XB            :       0.0000000
fix           :       0.0000000
total E       :     -14.5588143
atomizationE  :       2.7765256     1742.30
(atE without considerung molecular charge,
 total energy contains solvation terms)
H-L gap (eV)  :         12.0286
 
             =======================================
             |                                     |
             |    Approximate Normal Coordinate    |
             |   Rational Function Optimization    |
             |                                     |
             =======================================
Ref. for RF algo: F.Eckert, P.Pulay, H.-J.Werner
                  J.Comput.Chem. 18 (1997) 1473.
ANC idea implemented by S. Grimme in the 2000ers (unpublished)
restraining potential by S. Ehrlich.
dumping coords to <xtbopt.coord> and <xtbopt.log
 optlevel               1
 Maxcycle             200
 Maxmicro              20
 Econv         1.000000000000000E-006
 Gconv         8.000000000000000E-004
 Maxdispl       1.00000000000000     
 Hlow          1.000000000000000E-002
 S6             20.0000000000000     
 Nvar               30

generating ANC from read Hessian ...
 Shifting diagonal of input Hessian by   1.637002243601509E-002
 Lowest  eigenvalues of input Hessian
    0.010000   -0.000000    0.000000    0.000000    0.000000    0.000000
    0.000000    0.017585    0.018553    0.027321    0.036866    0.043885
    0.060018    0.072816    0.075443    0.078346    0.088250    0.092467
 Highest eigenvalues
    0.741094    0.781865    0.796988    0.808176    0.826132    1.012190
 
cpu  time for ANC gen    0.01 s
wall time for ANC gen    0.01 s
................................................................................
.............................. CYCLE    1 ......................................
................................................................................
  q data taken from xtbrestart
  CAMM data taken from xtbrestart
   1    -14.7288882 -0.147289E+02  0.661E-08   12.03       0.0  T
   2    -14.7288882 -0.355271E-14  0.438E-08   12.03  100000.0  T
   3    -14.7288882  0.710543E-14  0.111E-08   12.03  100000.0  T
speedup  1.00
cpu  time for SCC    0.00 s
wall time for SCC    0.00 s
speedup  1.00
cpu  time for grad    0.00 s
wall time for grad    0.00 s
 E :    -14.55881430  G :  0.000169    pred/act E change:  0.000D+00 -0.527D-10
Maxdispl :   0.0018   ||displ|| :   0.0020   Lambda : -0.156D-06
Largest |displ|/coords:  0.0018 (   3)  0.0005 (   8)  0.0005 (   5)
ancopt converged in          1 cycles
total energy gain (kcal):      0.0000
================
 final structure:
================
    12
        -14.55881430
C          -3.14649019408344   -0.22394134610480   -0.00281381037144
H          -2.79717204438977   -1.25253835747582   -0.02143736283815
H          -2.78404895521624    0.28981484449987   -0.89006734553352
H          -4.23286576976056   -0.21356802442861   -0.01903954583111
C          -2.64923874765477    0.48374395670497    1.25756552391280
H          -1.55044815642187    0.47749486754288    1.25864386509346
C          -3.14847952935019   -0.22279393548379    2.51779800555607
H          -2.79957629152105   -1.25152339889414    2.53771924513879
H          -2.78721567925398    0.29156937257262    3.40513943495500
H          -4.23486434868226   -0.21201787782010    2.53225339882353
O          -3.12700401665438    1.82544196209461    1.25662868721750
H          -2.39122059701150    2.44057772679230    1.25687372387707
 
 Bond Distances (Angstroems)
 ---------------------------
C1-H2=1.0865         C1-H3=1.0874         C1-H4=1.0865         C1-C5=1.5286         H2-C1=1.0865         H3-C1=1.0874         
H4-C1=1.0865         C5-C1=1.5286         C5-H6=1.0988         C5-C7=1.5286         C5-O11=1.4242        H6-C5=1.0988         
C7-C5=1.5286         C7-H8=1.0865         C7-H9=1.0874         C7-H10=1.0865        H8-C7=1.0865         H9-C7=1.0874         
H10-C7=1.0865        O11-C5=1.4242        O11-H12=0.9590       H12-O11=0.9590       
 C  H  Rav=1.0885 sigma=0.0042  Rmin=1.0865  Rmax=1.0988     7
 C  C  Rav=1.5286 sigma=0.0000  Rmin=1.5286  Rmax=1.5286     2
 O  H  Rav=0.9590 sigma=0.0000  Rmin=0.9590  Rmax=0.9590     1
 O  C  Rav=1.4242 sigma=0.0000  Rmin=1.4242  Rmax=1.4242     1
 
 selected bond angles (degree)
 --------------------
H3-C1-H2=109.03                H4-C1-H2=109.28                H4-C1-H3=108.45                C5-C1-H2=110.36                
C5-C1-H3=110.22                C5-C1-H4=109.46                H6-C5-C1=108.87                C7-C5-C1=111.07                
C7-C5-H6=108.85                O11-C5-C1=109.05               O11-C5-H6=109.93               O11-C5-C7=109.05               
H8-C7-C5=110.36                H9-C7-C5=110.22                H9-C7-H8=109.04                H10-C7-C5=109.45               
H10-C7-H8=109.28               H10-C7-H9=108.46               
 
 selected dihedral angles (degree)
 ---------------------------------
H6-C5-C1-H2= 60.31            H6-C5-C1-H3=299.82            H6-C5-C1-H4=180.62            C7-C5-C1-H2=300.46            
C7-C5-C1-H3=179.97            C7-C5-C1-H4= 60.77            O11-C5-C1-H2=180.25           O11-C5-C1-H3= 59.77           
O11-C5-C1-H4=300.56           H8-C7-C5-C1= 59.51            H8-C7-C5-H6=299.65            H8-C7-C5-O11=179.72           
H9-C7-C5-C1=180.01            H9-C7-C5-H6= 60.15            H9-C7-C5-O11=300.22           H10-C7-C5-C1=299.21           
H10-C7-C5-H6=179.35           H10-C7-C5-O11= 59.42          
 
             =======================================
             |                                     |
             |        S C C  calculation           |
             |                                     |
             =======================================
 #proc     :            2
 Ncao      :           24
 Nao       :           24
 Nel       :           26
 T(el)     :   300.0
 intcut    :    25.0
 scfconv   :  0.100E-05
   qconv   :  0.100E-03
 intneglect:  0.100E-07
 broydamp  :      0.400
 Nshell    :           16
 iter      E             dE          RMSdq      gap      omega  full diag
   1    -14.7288882 -0.147289E+02  0.275E-09   12.03       0.0  T
   2    -14.7288882  0.000000E+00  0.121E-09   12.03  100000.0  T
   3    -14.7288882  0.532907E-14  0.773E-10   12.03  100000.0  T
speedup  1.00
cpu  time for SCC    0.00 s
wall time for SCC    0.00 s

          eigenvalues
 #    :           1          2          3          4          5          6          7          8
 occ. :        2.000      2.000      2.000      2.000      2.000      2.000      2.000      2.000
 eps  :       -18.524    -17.099    -16.140    -15.603    -15.364    -13.906    -13.695    -13.193
 #    :           9         10         11         12         13         14         15         16
 occ. :        2.000      2.000      2.000      2.000      2.000      0.000      0.000      0.000
 eps  :       -12.612    -12.562    -12.299    -11.719    -11.038      0.991      2.626      3.380
 #    :          17         18         19         20         21         22         23         24
 occ. :        0.000      0.000      0.000      0.000      0.000      0.000      0.000      0.000
 eps  :         3.624      4.513      5.403      5.435      6.404      6.781      6.951      8.418
 

   #   Z            q   n(s)   n(p)   n(d)      C6AA      α(0)    relVol
   1   6 C     -0.116  1.042  3.075  0.000    22.894     6.838     0.553
   2   1 H      0.037  0.963  0.000  0.000     2.483     2.464     0.487
   3   1 H      0.043  0.957  0.000  0.000     2.408     2.427     0.480
   4   1 H      0.054  0.946  0.000  0.000     2.263     2.353     0.465
   5   6 C      0.126  1.042  2.832  0.000    18.762     6.212     0.503
   6   1 H      0.006  0.994  0.000  0.000     2.949     2.685     0.531
   7   6 C     -0.116  1.042  3.075  0.000    22.894     6.838     0.553
   8   1 H      0.037  0.963  0.000  0.000     2.483     2.464     0.487
   9   1 H      0.043  0.957  0.000  0.000     2.408     2.426     0.480
  10   1 H      0.054  0.946  0.000  0.000     2.263     2.353     0.465
  11   8 O     -0.450  1.709  4.741  0.000    22.354     6.397     1.231
  12   1 H      0.283  0.717  0.000  0.000     0.713     1.326     0.262

 Mol. C6AA /au*bohr^6 :        923.130026
 Mol. C8AA /au*bohr^6 :      18722.421894
 Mol. a(0) /au        :         44.780996

 
 Wiberg/Mayer (AO) data. WBOs > 0.1 written file <wbo>
 largest (>0.05) Wiberg bond orders for each atom
           total WBO             WBO to atom ...
     1  C   3.995    C    5 1.002    H    3 0.986    H    2 0.986    H    4 0.985
     2  H   0.999    C    1 0.986
     3  H   0.998    C    1 0.986
     4  H   0.997    C    1 0.985
     5  C   3.956    C    1 1.002    C    7 1.002    O   11 0.978    H    6 0.971
     6  H   1.000    C    5 0.971
     7  C   3.995    C    5 1.002    H    9 0.986    H    8 0.986    H   10 0.985
     8  H   0.999    C    7 0.986
     9  H   0.998    C    7 0.986
    10  H   0.997    C    7 0.985
    11  O   1.953    C    5 0.978    H   12 0.909
    12  H   0.920    O   11 0.909
 
molecular dipole:
                 x           y           z       tot (Debye)
 q only:        0.411      -0.198       0.000
   full:        0.668      -0.175       0.001       1.755
molecular quadrupole (traceless):
                xx          xy          yy          xz          yz          zz
 q only:       -4.792       4.672       2.439       1.461      -0.703       2.353
  q+dip:       -6.778       5.996       3.467       2.377      -0.619       3.311
   full:       -7.145       5.973       3.916       2.376      -0.619       3.229
 SCC converged in            3  cycles
 
SCC energy    :     -14.7288882
rep           :       0.1700699
ES            :       0.0277244
AES           :       0.0041295
AXC           :       0.0041564
disp          :      -0.0049540
XB            :       0.0000000
fix           :       0.0000000
total E       :     -14.5588143
atomizationE  :       2.7765256     1742.30
(atE without considerung molecular charge,
 total energy contains solvation terms)
H-L gap (eV)  :         12.0286
 !!!!!!!!!!!!!!!!!!!!!!!!!!!!!!!!!!!
 ! Note: the input coordinates are !
 ! NOT overwritten. The optimized  !
 ! ones are on file <xtbopt.coord> !
 ! (or on <xtbopt.xyz> if it was a !
 ! xyz file)                       !
 !!!!!!!!!!!!!!!!!!!!!!!!!!!!!!!!!!!
 
Molecule has the following symmetry elements: (sigma) 
It seems to be the Cs point group
cs  symmetry found (for desy threshold:  0.10E+00) used in thermo
  q data taken from xtbrestart
  CAMM data taken from xtbrestart
 
             =======================================
             |                                     |
             |         Numerical Hessian           |
             |                                     |
             =======================================
step length          :   0.00500
SCC accuracy         :   0.30000
Hessian scale factor :   1.00000
frozen atoms in %    :   0.00000    0
RMS gradient         :   0.00017
estimated CPU  time      0.01 min
estimated wall time      0.01 min
 
 writing file <hessian>.
 
 projected vibrational frequencies (cm-1)
eig.   :       -0.00    -0.00     0.00     0.00     0.00     0.00
eig.   :     -324.26   174.11   216.88   355.76   399.56   468.22
eig.   :      866.53   935.22   965.47   965.93  1113.58  1139.46
eig.   :     1162.26  1257.02  1313.86  1342.21  1392.71  1405.53
eig.   :     1475.35  1485.54  1489.16  1500.79  2876.12  3036.49
eig.   :     3038.68  3040.97  3046.49  3050.77  3053.93  3614.65
 reduced masses (amu)
   1: 11.11   2:  9.97   3: 10.20   4: 11.51   5: 10.40   6: 10.84   7:  2.65   8:  1.22
   9:  1.89  10:  8.34  11: 10.30  12:  8.34  13:  9.18  14:  2.72  15:  8.36  16:  4.39
  17:  4.02  18:  7.93  19:  8.17  20:  4.50  21:  4.20  22:  3.25  23:  3.34  24:  3.21
  25:  1.57  26:  1.56  27:  1.59  28:  1.57  29:  1.74  30:  1.94  31:  1.69  32:  1.56
  33:  1.72  34:  1.66  35:  1.74  36:  1.89
 IR intensities (amu)
   1:  0.18   2:  0.14   3:  0.21   4:  0.16   5:  0.11   6:  0.13   7:  0.53   8:  0.03
   9:  0.07  10:  0.13  11:  0.41  12:  0.27  13:  0.38  14:  0.03  15:  0.88  16:  0.05
  17:  0.12  18:  0.47  19:  1.01  20:  0.42  21:  0.34  22:  0.33  23:  0.17  24:  0.17
  25:  0.01  26:  0.00  27:  0.04  28:  0.04  29:  0.38  30:  0.19  31:  0.14  32:  0.09
  33:  0.28  34:  0.07  35:  0.24  36:  0.19
 output can be read by thermo (or use thermo option).
 writing <g98.out> molden fake output.
 recommended (thermochemical) frequency scaling factor: 1.0
                    ==================
                    thermo calculation
                    ==================
Nvib :   29 Nimag : 1  symmetry :   cs  rot number :  1  scale factor : 1.00 sthr :  50.
omega=174.11     Gvib=    -0.713     Grot=    -0.687     Gused=    -0.713
omega=216.88     Gvib=    -0.592     Grot=    -0.622     Gused=    -0.592
 
   temp. (K)  partition function   enthalpy   heat capacity  entropy
                                   cal/mol     cal/K/mol   cal/K/mol   J/K/mol
 298.15  VIB   4.63                 1491.442     11.593      8.047
         ROT  0.478E+05              888.752      2.981     24.394
         INT  0.221E+06             2380.195     14.574     32.441
         TR   0.451E+27             1481.254      4.968     38.183
         TOT                        3861.4486    19.5425    70.6234   295.4872
                     Eh         kcal/mol          kJ/mol 
ZPVE            0.105213         66.0223         276.236    
H(0)-H(T)+PV    0.615361E-02     3.86145         16.1562    
H(T)            0.111367         69.8837         292.392    
T*S             0.335555E-01     21.0564         88.0995    
G(T)            0.778113E-01     48.8273         204.293    
    -14.48100298  <=== TOTAL FREE ENERGY in Eh incl. el.,ZPVE,RRHO,solv. parts
 
Eat (element increment corrected) /kcal :  1234.106
        -175.177  <=== HOF(298)/kcal, to be compared to exptl. data
imag cut-off (cm-1) :    5.00
 found            1  significant imaginary frequency
 writing imag mode distorted coords to <xtbhess.coord>
 for further optimization.
 
 normal mode %tage of torsion character
   1:  0.00   2:  0.00   3:  0.00   4:  0.00   5:  0.00   6:  0.00   7:  0.95   8:  0.96
   9:  0.91  10:  0.19  11:  0.15  12:  0.49  13:  0.16  14:  0.40  15:  0.11  16:  0.06
  17:  0.46  18:  0.07  19:  0.15  20:  0.18  21:  0.22  22:  0.34  23:  0.24  24:  0.26
  25:  0.35  26:  0.34  27:  0.56  28:  0.57  29:  0.11  30:  0.10  31:  0.06  32:  0.01
  33:  0.02  34:  0.08  35:  0.15  36:  0.00
 recommended # of modes for mode following           4
 
speedup  0.97
cpu  time for all    0.54 s
wall time for all    0.56 s
