 Entering Gaussian System
 *********************************************
 Gaussian 98:
 frequency output generated by the xtb code
 *********************************************
                         Standard orientation:
 --------------------------------------------------------------------
  Center     Atomic     Atomic              Coordinates (Angstroms)
  Number     Number      Type              X           Y           Z
 --------------------------------------------------------------------
    1          6             0       -3.146491   -0.223925   -0.002802
    2          1             0       -2.797179   -1.252524   -0.021425
    3          1             0       -2.784050    0.289828   -0.890058
    4          1             0       -4.232867   -0.213546   -0.019024
    5          6             0       -2.649232    0.483760    1.257574
    6          1             0       -1.550441    0.477505    1.258648
    7          6             0       -3.148472   -0.222773    2.517809
    8          1             0       -2.799574   -1.251504    2.537731
    9          1             0       -2.787202    0.291590    3.405149
   10          1             0       -4.234857   -0.211991    2.532268
   11          8             0       -3.126990    1.825460    1.256636
   12          1             0       -2.391203    2.440592    1.256878
 --------------------------------------------------------------------
     1 basis functions        1 primitive gaussians
     1 alpha electrons        1 beta electrons
 
 Harmonic frequencies (cm**-1), IR intensities (KM/Mole),
 Raman scattering activities (A**4/amu), Raman depolarization ratios,
 reduced masses (AMU), force constants (mDyne/A) and normal coordinates:
                      1                      2                      3
                        a                      a                      a 
 Frequencies --  -324.2622               174.1141               216.8830
 Red. masses --     2.6497                 1.2208                 1.8935
 Frc consts  --     0.0000                 0.0000                 0.0000
 IR Inten    --     0.5287                 0.0250                 0.0737
 Raman Activ --     0.0000                 0.0000                 0.0000
 Depolar     --     0.0000                 0.0000                 0.0000
 Atom AN      X      Y      Z        X      Y      Z        X      Y      Z
   1   6    -0.05   0.01   0.04     0.08  -0.05   0.01     0.09   0.01  -0.01
   2   1    -0.02   0.00   0.01     0.37   0.11  -0.18    -0.30  -0.11   0.19
   3   1    -0.01   0.01   0.02    -0.29   0.22   0.01     0.35  -0.23  -0.01
   4   1    -0.02   0.01   0.02     0.02  -0.38   0.17     0.03   0.34  -0.19
   5   6    -0.00   0.00   0.00    -0.00  -0.00   0.01     0.03   0.03  -0.00
   6   1     0.00  -0.00  -0.03    -0.00  -0.00   0.01     0.01   0.04  -0.00
   7   6     0.05  -0.01   0.04    -0.08   0.05   0.01     0.09   0.01   0.01
   8   1     0.02  -0.00   0.01    -0.37  -0.11  -0.18    -0.30  -0.11  -0.19
   9   1     0.01  -0.01   0.02     0.29  -0.22   0.01     0.35  -0.23   0.01
  10   1     0.02  -0.01   0.02    -0.02   0.38   0.17     0.03   0.34   0.19
  11   8     0.00  -0.00  -0.32     0.00  -0.00  -0.03    -0.21  -0.05  -0.00
  12   1    -0.00   0.00   0.94     0.00  -0.00   0.02    -0.08   0.02  -0.00
                      4                      5                      6
                        a                      a                      a 
 Frequencies --   355.7589               399.5591               468.2168
 Red. masses --     8.3446                10.3041                 8.3400
 Frc consts  --     0.0000                 0.0000                 0.0000
 IR Inten    --     0.1337                 0.4109                 0.2748
 Raman Activ --     0.0000                 0.0000                 0.0000
 Depolar     --     0.0000                 0.0000                 0.0000
 Atom AN      X      Y      Z        X      Y      Z        X      Y      Z
   1   6    -0.05  -0.26   0.35    -0.02   0.33   0.18     0.07  -0.14  -0.23
   2   1     0.01  -0.07   0.28    -0.06   0.08  -0.10     0.14  -0.00   0.04
   3   1    -0.07  -0.24  -0.02    -0.01   0.20   0.11     0.17  -0.04  -0.01
   4   1    -0.02  -0.11   0.15    -0.01   0.16   0.08     0.03  -0.16  -0.30
   5   6     0.03   0.29  -0.00    -0.00   0.00   0.30    -0.54   0.03  -0.00
   6   1     0.01   0.09  -0.00    -0.00   0.00   0.14    -0.15  -0.06  -0.00
   7   6    -0.05  -0.26  -0.35     0.02  -0.33   0.18     0.07  -0.14   0.23
   8   1     0.01  -0.07  -0.28     0.06  -0.08  -0.10     0.14  -0.00  -0.04
   9   1    -0.07  -0.24   0.02     0.01  -0.20   0.11     0.17  -0.04   0.01
  10   1    -0.01  -0.11  -0.15     0.01  -0.16   0.08     0.03  -0.16   0.30
  11   8     0.08   0.37  -0.00     0.00  -0.00  -0.59     0.17   0.36  -0.00
  12   1     0.03   0.08   0.00     0.00  -0.00  -0.24     0.16  -0.05   0.00
                      7                      8                      9
                        a                      a                      a 
 Frequencies --   866.5283               935.2238               965.4707
 Red. masses --     9.1828                 2.7218                 8.3582
 Frc consts  --     0.0000                 0.0000                 0.0000
 IR Inten    --     0.3751                 0.0306                 0.8849
 Raman Activ --     0.0000                 0.0000                 0.0000
 Depolar     --     0.0000                 0.0000                 0.0000
 Atom AN      X      Y      Z        X      Y      Z        X      Y      Z
   1   6     0.03   0.22   0.40     0.22   0.11  -0.06    -0.10   0.13  -0.26
   2   1     0.14   0.10   0.19    -0.10  -0.03   0.10     0.09   0.07   0.25
   3   1     0.14   0.09   0.18    -0.24  -0.18  -0.25    -0.08  -0.21  -0.23
   4   1     0.01  -0.04  -0.08     0.05   0.13   0.42    -0.03  -0.14  -0.05
   5   6    -0.33   0.00  -0.00     0.00  -0.00  -0.15     0.06   0.41  -0.00
   6   1    -0.08  -0.11  -0.00    -0.00   0.00   0.31     0.02  -0.00  -0.00
   7   6     0.03   0.22  -0.40    -0.22  -0.11  -0.06    -0.10   0.12   0.26
   8   1     0.14   0.10  -0.19     0.10   0.03   0.10     0.09   0.06  -0.24
   9   1     0.14   0.09  -0.18     0.24   0.18  -0.25    -0.08  -0.21   0.23
  10   1     0.01  -0.04   0.08    -0.05  -0.13   0.42    -0.03  -0.13   0.05
  11   8     0.09  -0.39   0.00    -0.00   0.00   0.01     0.16  -0.45  -0.00
  12   1     0.07  -0.16   0.00     0.00  -0.00   0.02    -0.11   0.07  -0.00
                     10                     11                     12
                        a                      a                      a 
 Frequencies --   965.9303              1113.5807              1139.4579
 Red. masses --     4.3941                 4.0183                 7.9258
 Frc consts  --     0.0000                 0.0000                 0.0000
 IR Inten    --     0.0501                 0.1196                 0.4726
 Raman Activ --     0.0000                 0.0000                 0.0000
 Depolar     --     0.0000                 0.0000                 0.0000
 Atom AN      X      Y      Z        X      Y      Z        X      Y      Z
   1   6    -0.04   0.34   0.11     0.24   0.06  -0.07     0.19  -0.00   0.29
   2   1     0.21   0.15   0.43    -0.11  -0.04   0.01    -0.03  -0.02  -0.11
   3   1     0.04  -0.14  -0.08    -0.17  -0.08  -0.16     0.05   0.14   0.15
   4   1    -0.01  -0.16  -0.09     0.05   0.13   0.30     0.05   0.16   0.12
   5   6    -0.00  -0.01  -0.19    -0.36   0.04  -0.00     0.00  -0.00  -0.62
   6   1    -0.00   0.00  -0.23    -0.09   0.19  -0.00     0.00  -0.00  -0.41
   7   6     0.05  -0.35   0.10     0.24   0.06   0.07    -0.19   0.00   0.29
   8   1    -0.22  -0.16   0.43    -0.11  -0.04  -0.01     0.03   0.02  -0.11
   9   1    -0.04   0.15  -0.09    -0.17  -0.08   0.16    -0.05  -0.14   0.15
  10   1     0.01   0.17  -0.09     0.05   0.13  -0.30    -0.05  -0.16   0.12
  11   8    -0.00   0.01  -0.07    -0.04  -0.08   0.00     0.00   0.00   0.06
  12   1     0.00  -0.00  -0.04     0.34  -0.45   0.00    -0.00   0.00  -0.00
                     13                     14                     15
                        a                      a                      a 
 Frequencies --  1162.2612              1257.0177              1313.8579
 Red. masses --     8.1701                 4.5005                 4.1989
 Frc consts  --     0.0000                 0.0000                 0.0000
 IR Inten    --     1.0081                 0.4195                 0.3396
 Raman Activ --     0.0000                 0.0000                 0.0000
 Depolar     --     0.0000                 0.0000                 0.0000
 Atom AN      X      Y      Z        X      Y      Z        X      Y      Z
   1   6    -0.01  -0.24   0.04     0.19   0.03   0.00     0.16   0.02  -0.08
   2   1    -0.10  -0.08  -0.27    -0.08  -0.03   0.02    -0.11  -0.05  -0.04
   3   1     0.02   0.16   0.14    -0.09  -0.01  -0.06    -0.10  -0.09  -0.13
   4   1    -0.00   0.10  -0.05     0.04   0.08   0.20     0.03  -0.01   0.08
   5   6    -0.15   0.59  -0.00    -0.40  -0.14   0.00    -0.00   0.00   0.48
   6   1    -0.04   0.29  -0.00    -0.10  -0.24  -0.00     0.00  -0.00  -0.77
   7   6    -0.01  -0.24  -0.04     0.19   0.03  -0.00    -0.16  -0.02  -0.08
   8   1    -0.10  -0.08   0.27    -0.08  -0.03  -0.02     0.11   0.05  -0.04
   9   1     0.02   0.16  -0.14    -0.09  -0.01   0.05     0.10   0.09  -0.13
  10   1    -0.00   0.10   0.05     0.04   0.08  -0.20    -0.03   0.01   0.08
  11   8     0.21  -0.28   0.00     0.21  -0.02   0.00    -0.00   0.00  -0.03
  12   1    -0.06   0.07  -0.00    -0.43   0.57  -0.00     0.00  -0.00  -0.02
                     16                     17                     18
                        a                      a                      a 
 Frequencies --  1342.2080              1392.7105              1405.5275
 Red. masses --     3.2494                 3.3393                 3.2087
 Frc consts  --     0.0000                 0.0000                 0.0000
 IR Inten    --     0.3337                 0.1739                 0.1712
 Raman Activ --     0.0000                 0.0000                 0.0000
 Depolar     --     0.0000                 0.0000                 0.0000
 Atom AN      X      Y      Z        X      Y      Z        X      Y      Z
   1   6    -0.08   0.05  -0.03     0.08   0.15   0.27    -0.10  -0.18  -0.24
   2   1     0.05   0.03   0.11    -0.18  -0.04  -0.32     0.22   0.05   0.30
   3   1     0.06   0.01   0.03    -0.14  -0.24  -0.18     0.14   0.24   0.19
   4   1    -0.02  -0.03   0.02     0.01  -0.21  -0.31    -0.01   0.24   0.29
   5   6    -0.06  -0.37   0.00     0.00   0.00  -0.10     0.02   0.07   0.00
   6   1    -0.02   0.85  -0.00    -0.00  -0.00   0.11     0.01  -0.11  -0.00
   7   6    -0.08   0.05   0.03    -0.08  -0.15   0.27    -0.10  -0.17   0.24
   8   1     0.05   0.03  -0.11     0.18   0.04  -0.32     0.22   0.05  -0.30
   9   1     0.06   0.01  -0.03     0.14   0.24  -0.18     0.14   0.24  -0.19
  10   1    -0.02  -0.03  -0.02    -0.01   0.21  -0.31    -0.01   0.24  -0.29
  11   8     0.17  -0.03   0.00    -0.00  -0.00   0.00    -0.03   0.01  -0.00
  12   1    -0.10   0.16  -0.00     0.00  -0.00   0.01     0.02  -0.03   0.00
                     19                     20                     21
                        a                      a                      a 
 Frequencies --  1475.3548              1485.5413              1489.1597
 Red. masses --     1.5660                 1.5617                 1.5873
 Frc consts  --     0.0000                 0.0000                 0.0000
 IR Inten    --     0.0051                 0.0016                 0.0424
 Raman Activ --     0.0000                 0.0000                 0.0000
 Depolar     --     0.0000                 0.0000                 0.0000
 Atom AN      X      Y      Z        X      Y      Z        X      Y      Z
   1   6    -0.13  -0.04   0.08     0.10   0.03  -0.10    -0.08   0.13  -0.06
   2   1     0.41   0.14  -0.26    -0.40  -0.14   0.27    -0.10  -0.01  -0.18
   3   1     0.09  -0.30  -0.12    -0.06   0.30   0.14     0.43  -0.16   0.07
   4   1    -0.01   0.32   0.04     0.00  -0.33  -0.02    -0.01  -0.31   0.34
   5   6    -0.00  -0.00   0.06     0.06   0.03  -0.00    -0.00  -0.00  -0.02
   6   1     0.00   0.00  -0.05     0.02   0.00  -0.00    -0.00  -0.00  -0.01
   7   6     0.13   0.04   0.08     0.10   0.03   0.10     0.08  -0.13  -0.06
   8   1    -0.41  -0.14  -0.26    -0.40  -0.14  -0.27     0.10   0.02  -0.18
   9   1    -0.09   0.30  -0.12    -0.06   0.30  -0.14    -0.43   0.16   0.07
  10   1     0.01  -0.32   0.05     0.00  -0.32   0.02     0.01   0.31   0.34
  11   8     0.00  -0.00  -0.00    -0.01   0.00  -0.00     0.00   0.00  -0.00
  12   1    -0.00   0.00   0.00     0.02  -0.02   0.00    -0.00   0.00   0.00
                     22                     23                     24
                        a                      a                      a 
 Frequencies --  1500.7922              2876.1228              3036.4855
 Red. masses --     1.5707                 1.7435                 1.9366
 Frc consts  --     0.0000                 0.0000                 0.0000
 IR Inten    --     0.0377                 0.3789                 0.1891
 Raman Activ --     0.0000                 0.0000                 0.0000
 Depolar     --     0.0000                 0.0000                 0.0000
 Atom AN      X      Y      Z        X      Y      Z        X      Y      Z
   1   6    -0.08   0.11  -0.06    -0.00   0.00   0.00     0.09   0.14  -0.14
   2   1    -0.08  -0.01  -0.20     0.00  -0.01   0.00     0.09  -0.19  -0.02
   3   1     0.43  -0.17   0.07     0.00   0.01  -0.01    -0.22  -0.32   0.54
   4   1    -0.02  -0.28   0.36     0.04   0.00   0.00    -0.17   0.02  -0.02
   5   6    -0.03   0.07  -0.00     0.26   0.01   0.00     0.00   0.00  -0.01
   6   1    -0.01  -0.04  -0.00    -0.96  -0.00  -0.00    -0.00   0.00   0.00
   7   6    -0.08   0.11   0.06    -0.00   0.00  -0.00    -0.08  -0.13  -0.12
   8   1    -0.08  -0.01   0.20     0.00  -0.01  -0.00    -0.09   0.20  -0.02
   9   1     0.43  -0.16  -0.07     0.00   0.01   0.01     0.19   0.27   0.46
  10   1    -0.01  -0.28  -0.36     0.04   0.00  -0.00     0.17  -0.02  -0.02
  11   8     0.00  -0.01   0.00     0.00  -0.01   0.00     0.00  -0.00   0.00
  12   1     0.00  -0.01   0.00     0.01   0.01   0.00    -0.00  -0.00  -0.00
                     25                     26                     27
                        a                      a                      a 
 Frequencies --  3038.6813              3040.9677              3046.4878
 Red. masses --     1.6871                 1.5647                 1.7185
 Frc consts  --     0.0000                 0.0000                 0.0000
 IR Inten    --     0.1398                 0.0914                 0.2773
 Raman Activ --     0.0000                 0.0000                 0.0000
 Depolar     --     0.0000                 0.0000                 0.0000
 Atom AN      X      Y      Z        X      Y      Z        X      Y      Z
   1   6     0.07   0.06  -0.14     0.07  -0.13  -0.05     0.04  -0.18   0.01
   2   1    -0.02   0.10  -0.02    -0.20   0.60  -0.00    -0.23   0.65   0.01
   3   1    -0.21  -0.31   0.52    -0.07  -0.13   0.18     0.03   0.01  -0.05
   4   1    -0.01   0.01  -0.02     0.01  -0.02  -0.00     0.07  -0.03   0.00
   5   6     0.01   0.00   0.00    -0.00   0.00  -0.00     0.01  -0.01  -0.00
   6   1    -0.02   0.00  -0.00     0.00  -0.00   0.00    -0.01   0.00  -0.00
   7   6     0.08   0.08   0.15    -0.08   0.13  -0.05     0.03  -0.17  -0.01
   8   1    -0.00   0.06   0.02     0.21  -0.62  -0.00    -0.22   0.63  -0.01
   9   1    -0.24  -0.35  -0.58     0.07   0.14   0.19     0.03   0.01   0.06
  10   1    -0.03   0.01   0.02    -0.01   0.02  -0.00     0.07  -0.02  -0.00
  11   8     0.00  -0.00  -0.00     0.00  -0.00  -0.00    -0.00   0.00  -0.00
  12   1    -0.00  -0.00   0.00     0.00   0.00  -0.00    -0.00  -0.00  -0.00
                     28                     29                     30
                        a                      a                      a 
 Frequencies --  3050.7680              3053.9250              3614.6541
 Red. masses --     1.6635                 1.7381                 1.8922
 Frc consts  --     0.0000                 0.0000                 0.0000
 IR Inten    --     0.0666                 0.2444                 0.1945
 Raman Activ --     0.0000                 0.0000                 0.0000
 Depolar     --     0.0000                 0.0000                 0.0000
 Atom AN      X      Y      Z        X      Y      Z        X      Y      Z
   1   6    -0.17   0.04  -0.03     0.18  -0.02   0.01    -0.00  -0.00   0.00
   2   1     0.00  -0.06  -0.00     0.00   0.06  -0.00    -0.00   0.00  -0.00
   3   1    -0.08  -0.07   0.13     0.04   0.01  -0.03    -0.00  -0.00   0.00
   4   1     0.67  -0.00  -0.00    -0.67   0.01  -0.00     0.00   0.00   0.00
   5   6    -0.00   0.00  -0.00     0.02   0.00  -0.00    -0.01  -0.00  -0.00
   6   1     0.00  -0.00  -0.00    -0.05   0.00  -0.00     0.01   0.00   0.00
   7   6     0.16  -0.04  -0.03     0.18  -0.02  -0.01    -0.00  -0.00  -0.00
   8   1     0.00   0.05  -0.00     0.00   0.06   0.00    -0.00   0.00   0.00
   9   1     0.08   0.08   0.13     0.04   0.01   0.03    -0.00  -0.00  -0.00
  10   1    -0.65   0.00  -0.00    -0.69   0.01   0.00     0.00   0.00  -0.00
  11   8     0.00   0.00   0.00    -0.00  -0.00   0.00    -0.19  -0.16  -0.00
  12   1    -0.00  -0.00  -0.00     0.01   0.00  -0.00     0.75   0.62   0.00
