 Entering Gaussian System
 *********************************************
 Gaussian 98:
 frequency output generated by the xtb code
 *********************************************
                         Standard orientation:
 --------------------------------------------------------------------
  Center     Atomic     Atomic              Coordinates (Angstroms)
  Number     Number      Type              X           Y           Z
 --------------------------------------------------------------------
    1          6             0       -3.146490   -0.223941   -0.002814
    2          1             0       -2.797172   -1.252538   -0.021437
    3          1             0       -2.784049    0.289815   -0.890067
    4          1             0       -4.232866   -0.213568   -0.019040
    5          6             0       -2.649239    0.483744    1.257565
    6          1             0       -1.550448    0.477495    1.258644
    7          6             0       -3.148479   -0.222794    2.517798
    8          1             0       -2.799576   -1.251523    2.537719
    9          1             0       -2.787216    0.291569    3.405139
   10          1             0       -4.234864   -0.212018    2.532253
   11          8             0       -3.127004    1.825442    1.256629
   12          1             0       -2.391221    2.440578    1.256874
 --------------------------------------------------------------------
     1 basis functions        1 primitive gaussians
     1 alpha electrons        1 beta electrons
 
 Harmonic frequencies (cm**-1), IR intensities (KM/Mole),
 Raman scattering activities (A**4/amu), Raman depolarization ratios,
 reduced masses (AMU), force constants (mDyne/A) and normal coordinates:
                      1                      2                      3
                        a                      a                      a 
 Frequencies --  -324.2622               174.1141               216.8830
 Red. masses --    99.0000                99.0000                99.0000
 Frc consts  --    99.0000                99.0000                99.0000
 IR Inten    --    99.0000                99.0000                99.0000
 Raman Activ --     0.0000                 0.0000                 0.0000
 Depolar     --     0.0000                 0.0000                 0.0000
 Atom AN      X      Y      Z        X      Y      Z        X      Y      Z
   1   6    -0.05   0.01   0.04     0.08  -0.05   0.01     0.09   0.01  -0.01
   2   1    -0.02   0.00   0.01     0.37   0.11  -0.18    -0.30  -0.11   0.19
   3   1    -0.01   0.01   0.02    -0.29   0.22   0.01     0.35  -0.23  -0.01
   4   1    -0.02   0.01   0.02     0.02  -0.38   0.17     0.03   0.34  -0.19
   5   6    -0.00   0.00   0.00    -0.00  -0.00   0.01     0.03   0.03  -0.00
   6   1     0.00  -0.00  -0.03    -0.00  -0.00   0.01     0.01   0.04  -0.00
   7   6     0.05  -0.01   0.04    -0.08   0.05   0.01     0.09   0.01   0.01
   8   1     0.02  -0.00   0.01    -0.37  -0.11  -0.18    -0.30  -0.11  -0.19
   9   1     0.01  -0.01   0.02     0.29  -0.22   0.01     0.35  -0.23   0.01
  10   1     0.02  -0.01   0.02    -0.02   0.38   0.17     0.03   0.34   0.19
  11   8     0.00  -0.00  -0.32     0.00  -0.00  -0.03    -0.21  -0.05  -0.00
  12   1    -0.00   0.00   0.94     0.00  -0.00   0.02    -0.08   0.02  -0.00
                      4                      5                      6
                        a                      a                      a 
 Frequencies --   355.7589               468.2168               399.5591
 Red. masses --    99.0000                99.0000                99.0000
 Frc consts  --    99.0000                99.0000                99.0000
 IR Inten    --    99.0000                99.0000                99.0000
 Raman Activ --     0.0000                 0.0000                 0.0000
 Depolar     --     0.0000                 0.0000                 0.0000
 Atom AN      X      Y      Z        X      Y      Z        X      Y      Z
   1   6    -0.05  -0.26   0.35     0.07  -0.14  -0.23    -0.02   0.33   0.18
   2   1     0.01  -0.07   0.28     0.14  -0.00   0.04    -0.06   0.08  -0.10
   3   1    -0.07  -0.24  -0.02     0.17  -0.04  -0.01    -0.01   0.20   0.11
   4   1    -0.02  -0.11   0.15     0.03  -0.16  -0.30    -0.01   0.16   0.08
   5   6     0.03   0.29  -0.00    -0.54   0.03  -0.00    -0.00   0.00   0.30
   6   1     0.01   0.09  -0.00    -0.15  -0.06  -0.00    -0.00   0.00   0.14
   7   6    -0.05  -0.26  -0.35     0.07  -0.14   0.23     0.02  -0.33   0.18
   8   1     0.01  -0.07  -0.28     0.14  -0.00  -0.04     0.06  -0.08  -0.10
   9   1    -0.07  -0.24   0.02     0.17  -0.04   0.01     0.01  -0.20   0.11
  10   1    -0.01  -0.11  -0.15     0.03  -0.16   0.30     0.01  -0.16   0.08
  11   8     0.08   0.37  -0.00     0.17   0.36  -0.00     0.00  -0.00  -0.59
  12   1     0.03   0.08   0.00     0.16  -0.05   0.00     0.00  -0.00  -0.24
                      7                      8                      9
                        a                      a                      a 
 Frequencies --   935.2238              1113.5807               866.5283
 Red. masses --    99.0000                99.0000                99.0000
 Frc consts  --    99.0000                99.0000                99.0000
 IR Inten    --    99.0000                99.0000                99.0000
 Raman Activ --     0.0000                 0.0000                 0.0000
 Depolar     --     0.0000                 0.0000                 0.0000
 Atom AN      X      Y      Z        X      Y      Z        X      Y      Z
   1   6     0.22   0.11  -0.06     0.24   0.06  -0.07     0.03   0.22   0.40
   2   1    -0.10  -0.03   0.10    -0.11  -0.04   0.01     0.14   0.10   0.19
   3   1    -0.24  -0.18  -0.25    -0.17  -0.08  -0.16     0.14   0.09   0.18
   4   1     0.05   0.13   0.42     0.05   0.13   0.30     0.01  -0.04  -0.08
   5   6     0.00  -0.00  -0.15    -0.36   0.04  -0.00    -0.33   0.00  -0.00
   6   1    -0.00   0.00   0.31    -0.09   0.19  -0.00    -0.08  -0.11  -0.00
   7   6    -0.22  -0.11  -0.06     0.24   0.06   0.07     0.03   0.22  -0.40
   8   1     0.10   0.03   0.10    -0.11  -0.04  -0.01     0.14   0.10  -0.19
   9   1     0.24   0.18  -0.25    -0.17  -0.08   0.16     0.14   0.09  -0.18
  10   1    -0.05  -0.13   0.42     0.05   0.13  -0.30     0.01  -0.04   0.08
  11   8    -0.00   0.00   0.01    -0.04  -0.08   0.00     0.09  -0.39   0.00
  12   1     0.00  -0.00   0.02     0.34  -0.45   0.00     0.07  -0.16   0.00
                     10                     11                     12
                        a                      a                      a 
 Frequencies --   965.4707              1500.7922               965.9303
 Red. masses --    99.0000                99.0000                99.0000
 Frc consts  --    99.0000                99.0000                99.0000
 IR Inten    --    99.0000                99.0000                99.0000
 Raman Activ --     0.0000                 0.0000                 0.0000
 Depolar     --     0.0000                 0.0000                 0.0000
 Atom AN      X      Y      Z        X      Y      Z        X      Y      Z
   1   6    -0.10   0.13  -0.26    -0.08   0.11  -0.06    -0.04   0.34   0.11
   2   1     0.09   0.07   0.25    -0.08  -0.01  -0.20     0.21   0.15   0.43
   3   1    -0.08  -0.21  -0.23     0.43  -0.17   0.07     0.04  -0.14  -0.08
   4   1    -0.03  -0.14  -0.05    -0.02  -0.28   0.36    -0.01  -0.16  -0.09
   5   6     0.06   0.41  -0.00    -0.03   0.07  -0.00    -0.00  -0.01  -0.19
   6   1     0.02  -0.00  -0.00    -0.01  -0.04  -0.00    -0.00   0.00  -0.23
   7   6    -0.10   0.12   0.26    -0.08   0.11   0.06     0.05  -0.35   0.10
   8   1     0.09   0.06  -0.24    -0.08  -0.01   0.20    -0.22  -0.16   0.43
   9   1    -0.08  -0.21   0.23     0.43  -0.16  -0.07    -0.04   0.15  -0.09
  10   1    -0.03  -0.13   0.05    -0.01  -0.28  -0.36     0.01   0.17  -0.09
  11   8     0.16  -0.45  -0.00     0.00  -0.01   0.00    -0.00   0.01  -0.07
  12   1    -0.11   0.07  -0.00     0.00  -0.01   0.00     0.00  -0.00  -0.04
                     13                     14                     15
                        a                      a                      a 
 Frequencies --  1489.1597              1342.2080              1162.2612
 Red. masses --    99.0000                99.0000                99.0000
 Frc consts  --    99.0000                99.0000                99.0000
 IR Inten    --    99.0000                99.0000                99.0000
 Raman Activ --     0.0000                 0.0000                 0.0000
 Depolar     --     0.0000                 0.0000                 0.0000
 Atom AN      X      Y      Z        X      Y      Z        X      Y      Z
   1   6    -0.08   0.13  -0.06    -0.08   0.05  -0.03    -0.01  -0.24   0.04
   2   1    -0.10  -0.01  -0.18     0.05   0.03   0.11    -0.10  -0.08  -0.27
   3   1     0.43  -0.16   0.07     0.06   0.01   0.03     0.02   0.16   0.14
   4   1    -0.01  -0.31   0.34    -0.02  -0.03   0.02    -0.00   0.10  -0.05
   5   6    -0.00  -0.00  -0.02    -0.06  -0.37   0.00    -0.15   0.59  -0.00
   6   1    -0.00  -0.00  -0.01    -0.02   0.85  -0.00    -0.04   0.29  -0.00
   7   6     0.08  -0.13  -0.06    -0.08   0.05   0.03    -0.01  -0.24  -0.04
   8   1     0.10   0.02  -0.18     0.05   0.03  -0.11    -0.10  -0.08   0.27
   9   1    -0.43   0.16   0.07     0.06   0.01  -0.03     0.02   0.16  -0.14
  10   1     0.01   0.31   0.34    -0.02  -0.03  -0.02    -0.00   0.10   0.05
  11   8     0.00   0.00  -0.00     0.17  -0.03   0.00     0.21  -0.28   0.00
  12   1    -0.00   0.00   0.00    -0.10   0.16  -0.00    -0.06   0.07  -0.00
                     16                     17                     18
                        a                      a                      a 
 Frequencies --  1139.4579              1257.0177              1313.8579
 Red. masses --    99.0000                99.0000                99.0000
 Frc consts  --    99.0000                99.0000                99.0000
 IR Inten    --    99.0000                99.0000                99.0000
 Raman Activ --     0.0000                 0.0000                 0.0000
 Depolar     --     0.0000                 0.0000                 0.0000
 Atom AN      X      Y      Z        X      Y      Z        X      Y      Z
   1   6     0.19  -0.00   0.29     0.19   0.03   0.00     0.16   0.02  -0.08
   2   1    -0.03  -0.02  -0.11    -0.08  -0.03   0.02    -0.11  -0.05  -0.04
   3   1     0.05   0.14   0.15    -0.09  -0.01  -0.06    -0.10  -0.09  -0.13
   4   1     0.05   0.16   0.12     0.04   0.08   0.20     0.03  -0.01   0.08
   5   6     0.00  -0.00  -0.62    -0.40  -0.14   0.00    -0.00   0.00   0.48
   6   1     0.00  -0.00  -0.41    -0.10  -0.24  -0.00     0.00  -0.00  -0.77
   7   6    -0.19   0.00   0.29     0.19   0.03  -0.00    -0.16  -0.02  -0.08
   8   1     0.03   0.02  -0.11    -0.08  -0.03  -0.02     0.11   0.05  -0.04
   9   1    -0.05  -0.14   0.15    -0.09  -0.01   0.05     0.10   0.09  -0.13
  10   1    -0.05  -0.16   0.12     0.04   0.08  -0.20    -0.03   0.01   0.08
  11   8     0.00   0.00   0.06     0.21  -0.02   0.00    -0.00   0.00  -0.03
  12   1    -0.00   0.00  -0.00    -0.43   0.57  -0.00     0.00  -0.00  -0.02
                     19                     20                     21
                        a                      a                      a 
 Frequencies --  1475.3548              1485.5413              1405.5275
 Red. masses --    99.0000                99.0000                99.0000
 Frc consts  --    99.0000                99.0000                99.0000
 IR Inten    --    99.0000                99.0000                99.0000
 Raman Activ --     0.0000                 0.0000                 0.0000
 Depolar     --     0.0000                 0.0000                 0.0000
 Atom AN      X      Y      Z        X      Y      Z        X      Y      Z
   1   6    -0.13  -0.04   0.08     0.10   0.03  -0.10    -0.10  -0.18  -0.24
   2   1     0.41   0.14  -0.26    -0.40  -0.14   0.27     0.22   0.05   0.30
   3   1     0.09  -0.30  -0.12    -0.06   0.30   0.14     0.14   0.24   0.19
   4   1    -0.01   0.32   0.04     0.00  -0.33  -0.02    -0.01   0.24   0.29
   5   6    -0.00  -0.00   0.06     0.06   0.03  -0.00     0.02   0.07   0.00
   6   1     0.00   0.00  -0.05     0.02   0.00  -0.00     0.01  -0.11  -0.00
   7   6     0.13   0.04   0.08     0.10   0.03   0.10    -0.10  -0.17   0.24
   8   1    -0.41  -0.14  -0.26    -0.40  -0.14  -0.27     0.22   0.05  -0.30
   9   1    -0.09   0.30  -0.12    -0.06   0.30  -0.14     0.14   0.24  -0.19
  10   1     0.01  -0.32   0.05     0.00  -0.32   0.02    -0.01   0.24  -0.29
  11   8     0.00  -0.00  -0.00    -0.01   0.00  -0.00    -0.03   0.01  -0.00
  12   1    -0.00   0.00   0.00     0.02  -0.02   0.00     0.02  -0.03   0.00
                     22                     23                     24
                        a                      a                      a 
 Frequencies --  1392.7105              2876.1228              3053.9250
 Red. masses --    99.0000                99.0000                99.0000
 Frc consts  --    99.0000                99.0000                99.0000
 IR Inten    --    99.0000                99.0000                99.0000
 Raman Activ --     0.0000                 0.0000                 0.0000
 Depolar     --     0.0000                 0.0000                 0.0000
 Atom AN      X      Y      Z        X      Y      Z        X      Y      Z
   1   6     0.08   0.15   0.27    -0.00   0.00   0.00     0.18  -0.02   0.01
   2   1    -0.18  -0.04  -0.32     0.00  -0.01   0.00     0.00   0.06  -0.00
   3   1    -0.14  -0.24  -0.18     0.00   0.01  -0.01     0.04   0.01  -0.03
   4   1     0.01  -0.21  -0.31     0.04   0.00   0.00    -0.67   0.01  -0.00
   5   6     0.00   0.00  -0.10     0.26   0.01   0.00     0.02   0.00  -0.00
   6   1    -0.00  -0.00   0.11    -0.96  -0.00  -0.00    -0.05   0.00  -0.00
   7   6    -0.08  -0.15   0.27    -0.00   0.00  -0.00     0.18  -0.02  -0.01
   8   1     0.18   0.04  -0.32     0.00  -0.01  -0.00     0.00   0.06   0.00
   9   1     0.14   0.24  -0.18     0.00   0.01   0.01     0.04   0.01   0.03
  10   1    -0.01   0.21  -0.31     0.04   0.00  -0.00    -0.69   0.01   0.00
  11   8    -0.00  -0.00   0.00     0.00  -0.01   0.00    -0.00  -0.00   0.00
  12   1     0.00  -0.00   0.01     0.01   0.01   0.00     0.01   0.00  -0.00
                     25                     26                     27
                        a                      a                      a 
 Frequencies --  3036.4855              3050.7680              3038.6813
 Red. masses --    99.0000                99.0000                99.0000
 Frc consts  --    99.0000                99.0000                99.0000
 IR Inten    --    99.0000                99.0000                99.0000
 Raman Activ --     0.0000                 0.0000                 0.0000
 Depolar     --     0.0000                 0.0000                 0.0000
 Atom AN      X      Y      Z        X      Y      Z        X      Y      Z
   1   6     0.09   0.14  -0.14    -0.17   0.04  -0.03     0.07   0.06  -0.14
   2   1     0.09  -0.19  -0.02     0.00  -0.06  -0.00    -0.02   0.10  -0.02
   3   1    -0.22  -0.32   0.54    -0.08  -0.07   0.13    -0.21  -0.31   0.52
   4   1    -0.17   0.02  -0.02     0.67  -0.00  -0.00    -0.01   0.01  -0.02
   5   6     0.00   0.00  -0.01    -0.00   0.00  -0.00     0.01   0.00   0.00
   6   1    -0.00   0.00   0.00     0.00  -0.00  -0.00    -0.02   0.00  -0.00
   7   6    -0.08  -0.13  -0.12     0.16  -0.04  -0.03     0.08   0.08   0.15
   8   1    -0.09   0.20  -0.02     0.00   0.05  -0.00    -0.00   0.06   0.02
   9   1     0.19   0.27   0.46     0.08   0.08   0.13    -0.24  -0.35  -0.58
  10   1     0.17  -0.02  -0.02    -0.65   0.00  -0.00    -0.03   0.01   0.02
  11   8     0.00  -0.00   0.00     0.00   0.00   0.00     0.00  -0.00  -0.00
  12   1    -0.00  -0.00  -0.00    -0.00  -0.00  -0.00    -0.00  -0.00   0.00
                     28                     29                     30
                        a                      a                      a 
 Frequencies --  3046.4878              3040.9677              3614.6541
 Red. masses --    99.0000                99.0000                99.0000
 Frc consts  --    99.0000                99.0000                99.0000
 IR Inten    --    99.0000                99.0000                99.0000
 Raman Activ --     0.0000                 0.0000                 0.0000
 Depolar     --     0.0000                 0.0000                 0.0000
 Atom AN      X      Y      Z        X      Y      Z        X      Y      Z
   1   6     0.04  -0.18   0.01     0.07  -0.13  -0.05    -0.00  -0.00   0.00
   2   1    -0.23   0.65   0.01    -0.20   0.60  -0.00    -0.00   0.00  -0.00
   3   1     0.03   0.01  -0.05    -0.07  -0.13   0.18    -0.00  -0.00   0.00
   4   1     0.07  -0.03   0.00     0.01  -0.02  -0.00     0.00   0.00   0.00
   5   6     0.01  -0.01  -0.00    -0.00   0.00  -0.00    -0.01  -0.00  -0.00
   6   1    -0.01   0.00  -0.00     0.00  -0.00   0.00     0.01   0.00   0.00
   7   6     0.03  -0.17  -0.01    -0.08   0.13  -0.05    -0.00  -0.00  -0.00
   8   1    -0.22   0.63  -0.01     0.21  -0.62  -0.00    -0.00   0.00   0.00
   9   1     0.03   0.01   0.06     0.07   0.14   0.19    -0.00  -0.00  -0.00
  10   1     0.07  -0.02  -0.00    -0.01   0.02  -0.00     0.00   0.00  -0.00
  11   8    -0.00   0.00  -0.00     0.00  -0.00  -0.00    -0.19  -0.16  -0.00
  12   1    -0.00  -0.00  -0.00     0.00   0.00  -0.00     0.75   0.62   0.00
