 
        ______________________________________
       |                                      |
       |           ==================         |
       |                 x T B                |
       |           ==================         |
       |               S. Grimme              |
       |        Universitaet Bonn, MCTC       |
       |         2015-18, Version 5.8.1       |
       |      Sun May  6 11:39:08 CEST 2018   |
       |______________________________________|
 
        This code comes without any warranty
        for non-commercial, academia use only.
        Preliminary GFN2 test version.
        Test license to: Dow Chemical Company
        Cite GFN-xTB work as:
        S. Grimme, C. Bannwarth, P. Shushkov
        JCTC, 13 (2017) 1989-2009
        for GFN2:
        C. Bannwarth, S. Ehlert, S. Grimme
        to be published.
        sTDA-xTB:
        S. Grimme  &  C. Bannwarth, JCP 145 (2016) 054103
        in the mass-spec context additionally:
        V. Asgeirsson, C.Bauer, S. Grimme, Chem. Sci. 8 (2017) 4879
 
        with help from
        P. Shushkov, G. Brandenburg, S. Dohm, J. Pisarek,
        F. März, M. Checinski, S. Ehrlich, S. Spicher, 
        P. Pracht, E. Caldeweyher, S. Ehlert, and C. Bannwarth.
 
        usage        :
        xtb <coord_file> [options]
        where <coord_file> is a valid file of TM)
        (*coord, Bohr) or xmol (*xyz, Angstroem)
        format.

        options:
        -chrg <int>   : molecular charge
        -uhf  <int>   : # of unpaired electrons(=2*S)
        -nox          : skip second, extended part in sTDA-xTB
        -pop          : do population analysis
                      : (default for -nox)
        -mowr <real>  : cut MO write above (def.3 Eh)
        -molden       : write formatted molden file
        -parx <file>  : read parameters for sTDA-xTB
                        calc (def:~/.param_stda2.xtb)
        -parv <file>  : read parameters for vTB part in
                        sTDA-xTB (def: ~/.param_stda1.xtb)
        -xtemp <real> : el. temp for xTB (def. 0 K)
        -etemp <real> : el. temp for GFN (def. 300 K)
        -fod          : calculate the FOD and write
                        molden.input file with
                        appropriate occupations
                        for plotting. Def. T=12500 K
 
        -gfn1         : use GFN-xTB
        -gfn2         : use GFN2-xTB
        -gfn2d3       : GFN2-xTB with D3 instead of D4
        -grad         : GFNn-xTB gradient
        -acc <real>   : GFNn-xTB accuracy (def. 1.0)
        -opt [level]  : optimize at GFNn-xTB
                      : level=crude,vloose,loose,
                      :       tight,vtight
        -hess         : compute Hessian at GFNn-xTB
        -ohess        : optimize and compute Hessian
        -omd          : optimize and do MD
        -siman        : conformational search
        -screen       : opt. loop over ensemble
        -gmd          : annealed MD for GMD procedure
        -modef        : vib mode following
        -gbsa [string1] [string2]
                        use GBSA implicit solvent
                        for solvent [string1] and
                        solvation state [string2]=
                        reference, bar1M (default=1M)
        additional GFN/opt/MD/siman options read from
        $XTBHOME/.xtbrc or $set in coordinate file
 
       spin and charge state information can be on:
       <.CHRG> (charge) and <.UHF> (=nalpha-nbeta)
       -uhf and -chrg override the file info.
       useful machine settings:
       setenv MKL_NUM_THREADS <NCORE_ON_YOUR_MACHINE>
       setenv OMP_STACKSIZE 500m
       limit stacksize unlimited
 
       total energies in Eh, gaps/HL energies in eV
       please read REVISION and HOWTO files carefully
          72  days left until this code expires
 =============================
  # OMP threads =           2
 =============================
 
 xtbhome directory:/home/ua25450/dftb/
 
 argument            1 :-ohess
 
 name of molecule           :
 comment line               :
 number of atoms            :     5
 number of electrons        :    26
 charge                     :  0
 spin                       : 0.0
 first test random number   :  0.9840
 
 
 -----------------------------------------
  G F N (Geometry, Frequency, Non-covalent)
        parametrization, gfnver=           3
     D4 dispersion model
 /home/ua25450/dftb/.param_gfn2.xtb
 -----------------------------------------
      method parameters     
 k(s)        :  1.8500
 k(p)        :  2.2300
 k(d)        :  2.2300
 k(f)        :  2.0000
 kEN (H0ij)  : -2.0000
 D3 a1       :  0.5200
 D3 a2       :  5.0000
 D3 s8       :  2.7000
 D3atm       :  5.0000
 alphaj      :  2.0000
 
     -------------------------
     ! NO SOLVENT MODEL USED !
     -------------------------
 
 doing EN charges ...
 sum q : -0.1554312D-14
 point charge moment (au)
     X       Y       Z   
   0.0763   0.1078   0.1863  total (Debye):    0.580
 
            Z     q(EN)     CN     RAES       Cart. coordinates
     1  C   4.0    0.07    3.91    3.47    -5.43825    -0.40414    -0.02322
     2  CL  7.0   -0.04    1.52    2.66    -8.78084    -0.38236     0.01316
     3  CL  7.0   -0.04    1.52    2.66    -4.30350     1.20088    -2.72865
     4  CL  7.0   -0.04    1.52    2.66    -4.30353    -3.54838     0.01356
     5  H   1.0    0.05    1.10    1.44    -4.75000     0.56854     1.66052
 
  Z AO/shell   Hii/eV     exponent
  1     Wed Apr 25 08:07:45 CEST 2018   EN: 2.200 GM2: 0.406  GM3: 0.0800  RAES: 1.40
     1s    -10.707211    1.230000
  6     Wed Apr 25 08:07:45 CEST 2018   EN: 2.550 GM2: 0.538  GM3: 0.1500  RAES: 3.00
     2s    -13.970922    2.096432
     2p    -10.063292    1.800000
 17     Mon Apr 23 14:09:22 CEST 2018   EN: 3.160 GM2: 0.249  GM3: 0.1495  RAES: 2.50
     3s    -29.278781    2.485265
     3p    -12.673758    2.199650
     3d     -0.240338    2.476089
 
Refinement of some symmetry elements was terminated before convergence was reached.
Some symmetry elements may remain unidentified.
Molecule has the following symmetry elements: (C3) 3*(sigma) 
It seems to be the C3v point group
c3v symmetry found (for desy threshold:  0.10E+00) used in thermo
 no old-style atom pair restraing (fixing) potential
 
             =======================================
             |                                     |
             |        S C C  calculation           |
             |                                     |
             =======================================
 #proc     :            2
 Ncao      :           35
 Nao       :           32
 Nel       :           26
 T(el)     :   300.0
 intcut    :    25.0
 scfconv   :  0.100E-05
   qconv   :  0.100E-03
 intneglect:  0.100E-07
 broydamp  :      0.400
 Nshell    :           12
 iter      E             dE          RMSdq      gap      omega  full diag
   1    -16.2585412 -0.162585E+02  0.571E+00    6.07       0.0  T
   2    -16.2989600 -0.404188E-01  0.462E+00    5.50       1.0  T
   3    -16.3116016 -0.126416E-01  0.239E+00    5.70       1.0  T
   4    -16.3119529 -0.351270E-03  0.215E-01    5.64       1.0  T
   5    -16.3119987 -0.458140E-04  0.104E-01    5.65       1.0  T
   6    -16.3120056 -0.687471E-05  0.714E-02    5.63       1.0  T
   7    -16.3120156 -0.100133E-04  0.700E-03    5.63       6.4  T
   8    -16.3120156 -0.177644E-07  0.342E-03    5.63      13.1  T
   9    -16.3120156 -0.135204E-07  0.150E-03    5.63      29.8  T
  10    -16.3120157 -0.275673E-08  0.217E-04    5.63     206.1  T
  11    -16.3120157 -0.118874E-09  0.905E-05    5.63     494.3  T
speedup  1.00
cpu  time for SCC    0.19 s
wall time for SCC    0.19 s

          eigenvalues
 #    :           1          2          3          4          5          6          7          8
 occ. :        2.000      2.000      2.000      2.000      2.000      2.000      2.000      2.000
 eps  :       -29.750    -29.622    -29.621    -18.061    -15.926    -15.420    -15.419    -12.760
 #    :           9         10         11         12         13         14         15         16
 occ. :        2.000      2.000      2.000      2.000      2.000      0.000      0.000      0.000
 eps  :       -12.760    -12.377    -12.377    -12.280    -12.251     -6.620     -5.039     -5.034
 #    :          17         18         19         20         21         22         23         24
 occ. :        0.000      0.000      0.000      0.000      0.000      0.000      0.000      0.000
 eps  :        -0.914     -0.598     -0.598     -0.542     -0.541     -0.540     -0.492     -0.488
 

   #   Z            q   n(s)   n(p)   n(d)      C6AA      α(0)    relVol
   1   6 C      0.191  1.100  2.709  0.000    18.732     6.389     0.517
   2  17 CL    -0.102  1.969  5.127  0.006   103.100    15.536     1.060
   3  17 CL    -0.102  1.970  5.127  0.006   103.109    15.536     1.060
   4  17 CL    -0.102  1.969  5.127  0.006   103.101    15.536     1.060
   5   1 H      0.116  0.884  0.000  0.000     1.620     1.989     0.394

 Mol. C6AA /au*bohr^6 :       1300.013555
 Mol. C8AA /au*bohr^6 :      50368.953721
 Mol. a(0) /au        :         54.986324

 
 Wiberg/Mayer (AO) data. WBOs > 0.1 written file <wbo>
 largest (>0.05) Wiberg bond orders for each atom
           total WBO             WBO to atom ...
     1  C   3.924    CL   2 0.987    CL   4 0.987    CL   3 0.987    H    5 0.964
     2  CL  1.088    C    1 0.987
     3  CL  1.087    C    1 0.987
     4  CL  1.088    C    1 0.987
     5  H   0.987    C    1 0.964
 
molecular dipole:
                 x           y           z       tot (Debye)
 q only:        0.189       0.267       0.464
   full:        0.473       0.223       0.386       1.203
molecular quadrupole (traceless):
                xx          xy          yy          xz          yz          zz
 q only:       -2.491      -1.899       0.543      -3.109       0.678       1.948
  q+dip:       -2.633      -1.197       0.178      -1.914       1.517       2.455
   full:       -2.260      -1.461       0.364      -2.370       0.872       1.896
 SCC converged in           11  cycles
 
SCC energy    :     -16.3120157
rep           :       0.0289280
ES            :       0.0118356
AES           :       0.0018081
AXC           :       0.0029236
disp          :      -0.0039465
XB            :       0.0000000
fix           :       0.0000000
total E       :     -16.2830871
atomizationE  :       0.8245980      517.44
(atE without considerung molecular charge,
 total energy contains solvation terms)
H-L gap (eV)  :          5.6316
 
             =======================================
             |                                     |
             |    Approximate Normal Coordinate    |
             |   Rational Function Optimization    |
             |                                     |
             =======================================
Ref. for RF algo: F.Eckert, P.Pulay, H.-J.Werner
                  J.Comput.Chem. 18 (1997) 1473.
ANC idea implemented by S. Grimme in the 2000ers (unpublished)
restraining potential by S. Ehrlich.
dumping coords to <xtbopt.coord> and <xtbopt.log
 optlevel               1
 Maxcycle             200
 Maxmicro              20
 Econv         1.000000000000000E-006
 Gconv         8.000000000000000E-004
 Maxdispl       1.00000000000000     
 Hlow          1.000000000000000E-002
 S6             20.0000000000000     
 Nvar                9

generating ANC from model Hessian ...
 Shifting diagonal of input Hessian by   0.000000000000000E+000
 Lowest  eigenvalues of input Hessian
   -0.000000   -0.000000   -0.000000   -0.000000    0.000000    0.000000
    0.048747    0.048834    0.057278    0.099959    0.100157    0.439616
    1.038286    1.118105    1.119994
 Highest eigenvalues
    0.099959    0.100157    0.439616    1.038286    1.118105    1.119994
 
cpu  time for ANC gen    0.01 s
wall time for ANC gen    0.01 s
................................................................................
.............................. CYCLE    1 ......................................
................................................................................
  q data taken from xtbrestart
  CAMM data taken from xtbrestart
   1    -16.3120157 -0.163120E+02  0.559E-05    5.63       0.0  T
   2    -16.3120157 -0.273559E-11  0.491E-05    5.63     910.5  T
   3    -16.3120157 -0.479261E-11  0.384E-05    5.63    1165.6  T
speedup  1.00
cpu  time for SCC    0.00 s
wall time for SCC    0.00 s
speedup  1.00
cpu  time for grad    0.00 s
wall time for grad    0.00 s
 E :    -16.28308714  G :  0.000209    pred/act E change:  0.000D+00  0.932D-10
Maxdispl :   0.0004   ||displ|| :   0.0005   Lambda : -0.544D-07
Largest |displ|/coords:  0.0004 (   1)  0.0002 (   5)  0.0002 (   4)
................................................................................
.............................. CYCLE    2 ......................................
................................................................................
   1    -16.3120185 -0.163120E+02  0.185E-03    5.63       0.0  T
   2    -16.3120185 -0.732076E-09  0.110E-03    5.63      40.7  T
   3    -16.3120185  0.203062E-09  0.500E-04    5.63      89.5  T
   4    -16.3120185 -0.499689E-09  0.167E-04    5.63     267.1  T
speedup  1.00
cpu  time for SCC    0.01 s
wall time for SCC    0.01 s
speedup  1.00
cpu  time for grad    0.00 s
wall time for grad    0.00 s
 E :    -16.28308718  G :  0.000140    pred/act E change:  0.000D+00 -0.416D-07
Maxdispl :   0.0003   ||displ|| :   0.0004   Lambda : -0.468D-07
Largest |displ|/coords:  0.0003 (   8)  0.0002 (   5)  0.0002 (   1)
ancopt converged in          2 cycles
total energy gain (kcal):     -0.0000
================
 final structure:
================
     5
        -16.28308718
C          -2.87773517004905   -0.21377824970683   -0.01231995194548
CL         -4.64664370411023   -0.20236593388729    0.00708367900652
CL         -2.27721398936059    0.63542931477201   -1.44397619227067
CL         -2.27733225822774   -1.87775692627426    0.00710665893144
H          -2.51373579825238    0.30088947509638    0.87872320627820
 
 Bond Distances (Angstroems)
 ---------------------------
C1-CL2=1.7691        C1-CL3=1.7696        C1-CL4=1.7691        C1-H5=1.0915         CL2-C1=1.7691        CL3-C1=1.7696        
CL4-C1=1.7691        H5-C1=1.0915         
 C  H  Rav=1.0915 sigma=0.0000  Rmin=1.0915  Rmax=1.0915     1
 CL C  Rav=1.7692 sigma=0.0002  Rmin=1.7691  Rmax=1.7696     3
 
 selected bond angles (degree)
 --------------------
CL3-C1-CL2=110.19              CL4-C1-CL2=110.20              CL4-C1-CL3=110.19              H5-C1-CL2=108.75               
H5-C1-CL3=108.72               H5-C1-CL4=108.75               
 
 selected dihedral angles (degree)
 ---------------------------------

 
             =======================================
             |                                     |
             |        S C C  calculation           |
             |                                     |
             =======================================
 #proc     :            2
 Ncao      :           35
 Nao       :           32
 Nel       :           26
 T(el)     :   300.0
 intcut    :    25.0
 scfconv   :  0.100E-05
   qconv   :  0.100E-03
 intneglect:  0.100E-07
 broydamp  :      0.400
 Nshell    :           12
 iter      E             dE          RMSdq      gap      omega  full diag
   1    -16.3120185 -0.163120E+02  0.921E-05    5.63       0.0  T
   2    -16.3120185 -0.617462E-11  0.788E-05    5.63     567.4  T
   3    -16.3120185 -0.136922E-10  0.501E-05    5.63     893.4  T
speedup  1.00
cpu  time for SCC    0.00 s
wall time for SCC    0.00 s

          eigenvalues
 #    :           1          2          3          4          5          6          7          8
 occ. :        2.000      2.000      2.000      2.000      2.000      2.000      2.000      2.000
 eps  :       -29.750    -29.621    -29.621    -18.061    -15.926    -15.419    -15.419    -12.760
 #    :           9         10         11         12         13         14         15         16
 occ. :        2.000      2.000      2.000      2.000      2.000      0.000      0.000      0.000
 eps  :       -12.760    -12.377    -12.377    -12.279    -12.251     -6.620     -5.039     -5.035
 #    :          17         18         19         20         21         22         23         24
 occ. :        0.000      0.000      0.000      0.000      0.000      0.000      0.000      0.000
 eps  :        -0.914     -0.598     -0.598     -0.541     -0.541     -0.540     -0.492     -0.488
 

   #   Z            q   n(s)   n(p)   n(d)      C6AA      α(0)    relVol
   1   6 C      0.191  1.100  2.709  0.000    18.732     6.389     0.517
   2  17 CL    -0.102  1.969  5.127  0.006   103.101    15.536     1.060
   3  17 CL    -0.102  1.970  5.127  0.006   103.108    15.536     1.060
   4  17 CL    -0.102  1.969  5.127  0.006   103.102    15.536     1.060
   5   1 H      0.116  0.884  0.000  0.000     1.619     1.989     0.394

 Mol. C6AA /au*bohr^6 :       1300.012471
 Mol. C8AA /au*bohr^6 :      50368.945965
 Mol. a(0) /au        :         54.986301

 
 Wiberg/Mayer (AO) data. WBOs > 0.1 written file <wbo>
 largest (>0.05) Wiberg bond orders for each atom
           total WBO             WBO to atom ...
     1  C   3.924    CL   2 0.987    CL   4 0.987    CL   3 0.987    H    5 0.964
     2  CL  1.088    C    1 0.987
     3  CL  1.087    C    1 0.987
     4  CL  1.088    C    1 0.987
     5  H   0.987    C    1 0.964
 
molecular dipole:
                 x           y           z       tot (Debye)
 q only:        0.189       0.267       0.464
   full:        0.158       0.223       0.386       1.203
molecular quadrupole (traceless):
                xx          xy          yy          xz          yz          zz
 q only:       -2.493      -1.900       0.544      -3.108       0.678       1.949
  q+dip:       -2.634      -1.197       0.178      -1.913       1.517       2.456
   full:       -2.262      -1.461       0.365      -2.370       0.871       1.897
 SCC converged in            3  cycles
 
SCC energy    :     -16.3120185
rep           :       0.0289308
ES            :       0.0118351
AES           :       0.0018076
AXC           :       0.0029240
disp          :      -0.0039465
XB            :       0.0000000
fix           :       0.0000000
total E       :     -16.2830872
atomizationE  :       0.8245980      517.44
(atE without considerung molecular charge,
 total energy contains solvation terms)
H-L gap (eV)  :          5.6313
 !!!!!!!!!!!!!!!!!!!!!!!!!!!!!!!!!!!
 ! Note: the input coordinates are !
 ! NOT overwritten. The optimized  !
 ! ones are on file <xtbopt.coord> !
 ! (or on <xtbopt.xyz> if it was a !
 ! xyz file)                       !
 !!!!!!!!!!!!!!!!!!!!!!!!!!!!!!!!!!!
 
Refinement of some symmetry elements was terminated before convergence was reached.
Some symmetry elements may remain unidentified.
Molecule has the following symmetry elements: (C3) 3*(sigma) 
It seems to be the C3v point group
c3v symmetry found (for desy threshold:  0.10E+00) used in thermo
  q data taken from xtbrestart
  CAMM data taken from xtbrestart
 
             =======================================
             |                                     |
             |         Numerical Hessian           |
             |                                     |
             =======================================
step length          :   0.00500
SCC accuracy         :   0.30000
Hessian scale factor :   1.00000
frozen atoms in %    :   0.00000    0
RMS gradient         :   0.00014
estimated CPU  time      0.00 min
estimated wall time      0.00 min
 
 writing file <hessian>.
 
 projected vibrational frequencies (cm-1)
eig.   :       -0.00    -0.00    -0.00     0.00     0.00     0.00
eig.   :      227.17   227.24   333.92   640.58   641.22   641.58
eig.   :     1119.56  1119.67  2931.56
 reduced masses (amu)
   1: 32.52   2: 34.20   3: 33.72   4: 33.38   5: 35.12   6: 33.81   7: 34.11   8: 34.11
   9: 31.05  10: 16.12  11: 16.08  12: 18.20  13:  1.96  14:  1.96  15:  1.79
 IR intensities (amu)
   1:  0.21   2:  0.27   3:  0.13   4:  0.17   5:  0.13   6:  0.08   7:  0.50   8:  0.49
   9:  0.30  10:  0.24  11:  0.24  12:  0.21  13:  0.30  14:  0.31  15:  0.10
 output can be read by thermo (or use thermo option).
 writing <g98.out> molden fake output.
 recommended (thermochemical) frequency scaling factor: 1.0
                    ==================
                    thermo calculation
                    ==================
Nvib :    9 Nimag : 0  symmetry :  c3v  rot number :  3  scale factor : 1.00 sthr :  50.
omega=227.17     Gvib=    -0.567     Grot=    -0.608     Gused=    -0.567
omega=227.24     Gvib=    -0.567     Grot=    -0.608     Gused=    -0.567
 
   temp. (K)  partition function   enthalpy   heat capacity  entropy
                                   cal/mol     cal/K/mol   cal/K/mol   J/K/mol
 298.15  VIB   3.27                 1179.977      8.573      6.312
         ROT  0.683E+05              888.752      2.981     25.104
         INT  0.223E+06             2068.729     11.554     31.415
         TR   0.126E+28             1481.254      4.968     40.228
         TOT                        3549.9830    16.5218    71.6430   299.7531
                     Eh         kcal/mol          kJ/mol 
ZPVE            0.179577E-01     11.2686         47.1477    
H(0)-H(T)+PV    0.565726E-02     3.54998         14.8531    
H(T)            0.236149E-01     14.8186         62.0007    
T*S             0.340399E-01     21.3604         89.3714    
G(T)           -0.104250E-01    -6.54177        -27.3707    
    -16.29351215  <=== TOTAL FREE ENERGY in Eh incl. el.,ZPVE,RRHO,solv. parts
 
Eat (element increment corrected) /kcal :   367.641
         -42.861  <=== HOF(298)/kcal, to be compared to exptl. data
 
 normal mode %tage of torsion character
   1:  0.00   2:  0.00   3:  0.00   4:  0.00   5:  0.00   6:  0.00   7:  0.20   8:  0.02
   9:  0.45  10:  0.17  11:  0.13  12:  0.39  13:  0.73  14:  0.04  15:  0.06
 recommended # of modes for mode following           4
 
speedup  0.96
cpu  time for all    0.70 s
wall time for all    0.74 s
