 Entering Gaussian System
 *********************************************
 Gaussian 98:
 frequency output generated by the xtb code
 *********************************************
                         Standard orientation:
 --------------------------------------------------------------------
  Center     Atomic     Atomic              Coordinates (Angstroms)
  Number     Number      Type              X           Y           Z
 --------------------------------------------------------------------
    1          6             0       -2.877736   -0.213763   -0.012310
    2         17             0       -4.646645   -0.202342    0.007100
    3         17             0       -2.277216    0.635439   -1.443969
    4         17             0       -2.277342   -1.877745    0.007118
    5          1             0       -2.513731    0.300904    0.878731
 --------------------------------------------------------------------
     1 basis functions        1 primitive gaussians
     1 alpha electrons        1 beta electrons
 
 Harmonic frequencies (cm**-1), IR intensities (KM/Mole),
 Raman scattering activities (A**4/amu), Raman depolarization ratios,
 reduced masses (AMU), force constants (mDyne/A) and normal coordinates:
                      1                      2                      3
                        a                      a                      a 
 Frequencies --   227.1676               227.2419               333.9237
 Red. masses --    34.1131                34.1111                31.0527
 Frc consts  --     0.0000                 0.0000                 0.0000
 IR Inten    --     0.4960                 0.4876                 0.3026
 Raman Activ --     0.0000                 0.0000                 0.0000
 Depolar     --     0.0000                 0.0000                 0.0000
 Atom AN      X      Y      Z        X      Y      Z        X      Y      Z
   1   6     0.19  -0.09  -0.03    -0.06  -0.17   0.12     0.14   0.19   0.33
   2  17     0.45   0.05  -0.26    -0.13   0.53  -0.24     0.46  -0.13  -0.22
   3  17    -0.42   0.43  -0.06    -0.36  -0.27   0.26    -0.27  -0.38   0.23
   4  17    -0.16  -0.42   0.34     0.53  -0.16  -0.10    -0.27   0.39  -0.22
   5   1     0.08  -0.03  -0.01    -0.02  -0.07   0.05     0.04   0.06   0.10
                      4                      5                      6
                        a                      a                      a 
 Frequencies --   640.5766               641.2166               641.5769
 Red. masses --    16.1243                16.0827                18.1981
 Frc consts  --     0.0000                 0.0000                 0.0000
 IR Inten    --     0.2383                 0.2403                 0.2074
 Raman Activ --     0.0000                 0.0000                 0.0000
 Depolar     --     0.0000                 0.0000                 0.0000
 Atom AN      X      Y      Z        X      Y      Z        X      Y      Z
   1   6    -0.28  -0.57   0.61     0.73  -0.49  -0.11     0.39   0.44   0.56
   2  17     0.09   0.03  -0.02    -0.29   0.01  -0.02    -0.35  -0.04  -0.06
   3  17     0.11   0.17  -0.34    -0.05  -0.00   0.06     0.04   0.07  -0.23
   4  17    -0.03   0.16  -0.02    -0.11   0.29   0.03     0.06  -0.30  -0.06
   5   1    -0.05  -0.11   0.13     0.14  -0.10  -0.03     0.10   0.11   0.16
                      7                      8                      9
                        a                      a                      a 
 Frequencies --  1119.5648              1119.6721              2931.5613
 Red. masses --     1.9566                 1.9583                 1.7914
 Frc consts  --     0.0000                 0.0000                 0.0000
 IR Inten    --     0.3023                 0.3128                 0.0987
 Raman Activ --     0.0000                 0.0000                 0.0000
 Depolar     --     0.0000                 0.0000                 0.0000
 Atom AN      X      Y      Z        X      Y      Z        X      Y      Z
   1   6     0.08   0.17  -0.13     0.20  -0.11  -0.02    -0.09  -0.13  -0.22
   2  17     0.02   0.00   0.03     0.05   0.03   0.05    -0.00  -0.00  -0.00
   3  17    -0.01  -0.01  -0.08    -0.01   0.01  -0.01     0.00   0.00  -0.00
   4  17    -0.00   0.04   0.04    -0.01  -0.05  -0.04     0.00  -0.00  -0.00
   5   1    -0.35  -0.72   0.55    -0.84   0.47   0.08     0.32   0.45   0.79
