 
        ______________________________________
       |                                      |
       |           ==================         |
       |                 x T B                |
       |           ==================         |
       |               S. Grimme              |
       |        Universitaet Bonn, MCTC       |
       |         2015-18, Version 5.8.1       |
       |      Sun May  6 11:39:08 CEST 2018   |
       |______________________________________|
 
        This code comes without any warranty
        for non-commercial, academia use only.
        Preliminary GFN2 test version.
        Test license to: Dow Chemical Company
        Cite GFN-xTB work as:
        S. Grimme, C. Bannwarth, P. Shushkov
        JCTC, 13 (2017) 1989-2009
        for GFN2:
        C. Bannwarth, S. Ehlert, S. Grimme
        to be published.
        sTDA-xTB:
        S. Grimme  &  C. Bannwarth, JCP 145 (2016) 054103
        in the mass-spec context additionally:
        V. Asgeirsson, C.Bauer, S. Grimme, Chem. Sci. 8 (2017) 4879
 
        with help from
        P. Shushkov, G. Brandenburg, S. Dohm, J. Pisarek,
        F. März, M. Checinski, S. Ehrlich, S. Spicher, 
        P. Pracht, E. Caldeweyher, S. Ehlert, and C. Bannwarth.
 
        usage        :
        xtb <coord_file> [options]
        where <coord_file> is a valid file of TM)
        (*coord, Bohr) or xmol (*xyz, Angstroem)
        format.

        options:
        -chrg <int>   : molecular charge
        -uhf  <int>   : # of unpaired electrons(=2*S)
        -nox          : skip second, extended part in sTDA-xTB
        -pop          : do population analysis
                      : (default for -nox)
        -mowr <real>  : cut MO write above (def.3 Eh)
        -molden       : write formatted molden file
        -parx <file>  : read parameters for sTDA-xTB
                        calc (def:~/.param_stda2.xtb)
        -parv <file>  : read parameters for vTB part in
                        sTDA-xTB (def: ~/.param_stda1.xtb)
        -xtemp <real> : el. temp for xTB (def. 0 K)
        -etemp <real> : el. temp for GFN (def. 300 K)
        -fod          : calculate the FOD and write
                        molden.input file with
                        appropriate occupations
                        for plotting. Def. T=12500 K
 
        -gfn1         : use GFN-xTB
        -gfn2         : use GFN2-xTB
        -gfn2d3       : GFN2-xTB with D3 instead of D4
        -grad         : GFNn-xTB gradient
        -acc <real>   : GFNn-xTB accuracy (def. 1.0)
        -opt [level]  : optimize at GFNn-xTB
                      : level=crude,vloose,loose,
                      :       tight,vtight
        -hess         : compute Hessian at GFNn-xTB
        -ohess        : optimize and compute Hessian
        -omd          : optimize and do MD
        -siman        : conformational search
        -screen       : opt. loop over ensemble
        -gmd          : annealed MD for GMD procedure
        -modef        : vib mode following
        -gbsa [string1] [string2]
                        use GBSA implicit solvent
                        for solvent [string1] and
                        solvation state [string2]=
                        reference, bar1M (default=1M)
        additional GFN/opt/MD/siman options read from
        $XTBHOME/.xtbrc or $set in coordinate file
 
       spin and charge state information can be on:
       <.CHRG> (charge) and <.UHF> (=nalpha-nbeta)
       -uhf and -chrg override the file info.
       useful machine settings:
       setenv MKL_NUM_THREADS <NCORE_ON_YOUR_MACHINE>
       setenv OMP_STACKSIZE 500m
       limit stacksize unlimited
 
       total energies in Eh, gaps/HL energies in eV
       please read REVISION and HOWTO files carefully
          72  days left until this code expires
 =============================
  # OMP threads =           2
 =============================
 
 xtbhome directory:/home/ua25450/dftb/
 
 argument            1 :-ohess
 
 name of molecule           :
 comment line               :
 number of atoms            :    18
 number of electrons        :    38
 charge                     :  0
 spin                       : 0.0
 first test random number   :  0.1836
 
 
 -----------------------------------------
  G F N (Geometry, Frequency, Non-covalent)
        parametrization, gfnver=           3
     D4 dispersion model
 /home/ua25450/dftb/.param_gfn2.xtb
 -----------------------------------------
      method parameters     
 k(s)        :  1.8500
 k(p)        :  2.2300
 k(d)        :  2.2300
 k(f)        :  2.0000
 kEN (H0ij)  : -2.0000
 D3 a1       :  0.5200
 D3 a2       :  5.0000
 D3 s8       :  2.7000
 D3atm       :  5.0000
 alphaj      :  2.0000
 
     -------------------------
     ! NO SOLVENT MODEL USED !
     -------------------------
 
 doing EN charges ...
 sum q : -0.1776357D-14
 point charge moment (au)
     X       Y       Z   
  -0.1487   0.0579  -0.2096  total (Debye):    0.670
 
            Z     q(EN)     CN     RAES       Cart. coordinates
     1  C   4.0   -0.13    4.02    3.65    -4.68056    -0.64180    -0.12667
     2  H   1.0    0.04    1.00    1.43    -3.99408    -2.57865    -0.12075
     3  H   1.0    0.04    1.00    1.43    -4.01015     0.27877    -1.83824
     4  H   1.0    0.04    1.00    1.43    -6.73534    -0.68209    -0.17848
     5  C   4.0   -0.09    4.06    3.73    -3.75672     0.76943     2.20736
     6  H   1.0    0.04    1.01    1.43    -1.69339     0.75890     2.24403
     7  H   1.0    0.04    1.01    1.43    -4.41644    -0.20326     3.90369
     8  C   4.0   -0.09    4.12    3.84    -4.69407     3.49799     2.25134
     9  H   1.0    0.04    1.01    1.43    -6.75887     3.50945     2.21659
    10  H   1.0    0.04    1.01    1.43    -4.03706     4.47128     0.55258
    11  C   4.0   -0.09    4.10    3.81    -3.76889     4.91547     4.58393
    12  H   1.0    0.05    1.01    1.43    -1.70763     4.93374     4.63321
    13  H   1.0    0.05    1.01    1.43    -4.42579     3.97216     6.29571
    14  C   4.0   -0.03    4.04    3.70    -4.70244     7.64118     4.63398
    15  H   1.0    0.04    1.00    1.43    -6.78158     7.67136     4.62176
    16  H   1.0    0.04    1.00    1.43    -4.03303     8.64359     2.93960
    17  O   6.0   -0.17    2.03    1.83    -3.76704     8.81402     6.84023
    18  H   1.0    0.11    1.02    1.43    -4.34433    10.53774     6.89293
 
  Z AO/shell   Hii/eV     exponent
  1     Wed Apr 25 08:07:45 CEST 2018   EN: 2.200 GM2: 0.406  GM3: 0.0800  RAES: 1.40
     1s    -10.707211    1.230000
  6     Wed Apr 25 08:07:45 CEST 2018   EN: 2.550 GM2: 0.538  GM3: 0.1500  RAES: 3.00
     2s    -13.970922    2.096432
     2p    -10.063292    1.800000
  8     Wed Apr 25 08:07:45 CEST 2018   EN: 3.440 GM2: 0.452  GM3:-0.0517  RAES: 1.80
     2s    -20.229985    2.439742
     2p    -15.503117    2.137023
 
Refinement of some symmetry elements was terminated before convergence was reached.
Some symmetry elements may remain unidentified.
Molecule has the following symmetry elements: (sigma) 
It seems to be the Cs point group
cs  symmetry found (for desy threshold:  0.10E+00) used in thermo
 no old-style atom pair restraing (fixing) potential
 
             =======================================
             |                                     |
             |        S C C  calculation           |
             |                                     |
             =======================================
 #proc     :            2
 Ncao      :           36
 Nao       :           36
 Nel       :           38
 T(el)     :   300.0
 intcut    :    25.0
 scfconv   :  0.100E-05
   qconv   :  0.100E-03
 intneglect:  0.100E-07
 broydamp  :      0.400
 Nshell    :           24
 iter      E             dE          RMSdq      gap      omega  full diag
   1    -21.1097958 -0.211098E+02  0.346E+00   12.11       0.0  T
   2    -21.1431718 -0.333761E-01  0.175E+00   12.04       1.0  T
   3    -21.1458149 -0.264304E-02  0.545E-01   11.89       1.0  T
   4    -21.1459732 -0.158359E-03  0.180E-01   11.94       1.0  T
   5    -21.1460304 -0.572115E-04  0.553E-02   11.99       1.0  T
   6    -21.1460356 -0.518104E-05  0.227E-02   11.99       1.0  T
   7    -21.1460360 -0.355870E-06  0.466E-03   11.99       5.1  T
   8    -21.1460360 -0.371189E-07  0.183E-03   11.99      12.8  T
   9    -21.1460360 -0.165770E-08  0.470E-04   11.99      50.1  T
  10    -21.1460360 -0.638973E-09  0.108E-04   11.99     218.0  T
speedup  1.00
cpu  time for SCC    0.04 s
wall time for SCC    0.04 s

          eigenvalues
 #    :           7          8          9         10         11         12         13         14
 occ. :        2.000      2.000      2.000      2.000      2.000      2.000      2.000      2.000
 eps  :       -14.976    -14.531    -13.900    -13.876    -13.300    -12.926    -12.921    -12.211
 #    :          15         16         17         18         19         20         21         22
 occ. :        2.000      2.000      2.000      2.000      2.000      0.000      0.000      0.000
 eps  :       -11.961    -11.919    -11.684    -11.496    -11.075      0.920      2.556      3.100
 #    :          23         24         25         26         27         28         29         30
 occ. :        0.000      0.000      0.000      0.000      0.000      0.000      0.000      0.000
 eps  :         3.177      3.571      3.946      4.407      4.483      4.634      5.075      5.785
 

   #   Z            q   n(s)   n(p)   n(d)      C6AA      α(0)    relVol
   1   6 C     -0.103  1.037  3.067  0.000    22.670     6.810     0.551
   2   1 H      0.035  0.965  0.000  0.000     2.514     2.479     0.491
   3   1 H      0.034  0.966  0.000  0.000     2.524     2.484     0.492
   4   1 H      0.034  0.966  0.000  0.000     2.524     2.484     0.492
   5   6 C     -0.054  1.048  3.006  0.000    21.623     6.632     0.537
   6   1 H      0.032  0.968  0.000  0.000     2.549     2.496     0.494
   7   1 H      0.032  0.968  0.000  0.000     2.549     2.496     0.494
   8   6 C     -0.062  1.052  3.009  0.000    21.733     6.642     0.538
   9   1 H      0.031  0.969  0.000  0.000     2.566     2.505     0.496
  10   1 H      0.031  0.969  0.000  0.000     2.566     2.505     0.496
  11   6 C     -0.065  1.051  3.014  0.000    21.811     6.656     0.539
  12   1 H      0.048  0.952  0.000  0.000     2.336     2.390     0.473
  13   1 H      0.048  0.952  0.000  0.000     2.337     2.390     0.473
  14   6 C      0.089  1.035  2.876  0.000    19.444     6.342     0.513
  15   1 H      0.013  0.987  0.000  0.000     2.834     2.633     0.521
  16   1 H      0.013  0.987  0.000  0.000     2.834     2.633     0.521
  17   8 O     -0.443  1.708  4.735  0.000    22.207     6.376     1.227
  18   1 H      0.284  0.716  0.000  0.000     0.709     1.322     0.262

 Mol. C6AA /au*bohr^6 :       2133.986185
 Mol. C8AA /au*bohr^6 :      43833.086215
 Mol. a(0) /au        :         68.275587

 
 Wiberg/Mayer (AO) data. WBOs > 0.1 written file <wbo>
 largest (>0.05) Wiberg bond orders for each atom
           total WBO             WBO to atom ...
     1  C   3.997    C    5 1.019    H    3 0.988    H    4 0.988    H    2 0.987
     2  H   0.998    C    1 0.987
     3  H   0.999    C    1 0.988
     4  H   0.999    C    1 0.988
     5  C   3.997    C    1 1.019    C    8 1.008    H    7 0.978    H    6 0.978
     6  H   0.999    C    5 0.978
     7  H   0.999    C    5 0.978
     8  C   3.997    C    5 1.008    C   11 1.007    H    9 0.977    H   10 0.977
     9  H   0.999    C    8 0.977
    10  H   0.999    C    8 0.977
    11  C   3.994    C    8 1.007    C   14 1.004    H   13 0.976    H   12 0.976
    12  H   0.998    C   11 0.976
    13  H   0.998    C   11 0.976
    14  C   3.957    C   11 1.004    O   17 0.994    H   16 0.972    H   15 0.972
    15  H   1.000    C   14 0.972
    16  H   1.000    C   14 0.972
    17  O   1.950    C   14 0.994    H   18 0.905
    18  H   0.919    O   17 0.905
 
molecular dipole:
                 x           y           z       tot (Debye)
 q only:       -0.246       0.075      -0.359
   full:        0.674       0.275      -0.476       1.712
molecular quadrupole (traceless):
                xx          xy          yy          xz          yz          zz
 q only:        1.955      -4.064       4.984      -0.143      -2.194      -6.938
  q+dip:        3.608      -7.030       7.722      -1.934      -3.470     -11.330
   full:        2.830      -7.152       8.258      -1.344      -2.677     -11.088
 SCC converged in           10  cycles
 
SCC energy    :     -21.1460360
rep           :       0.2611090
ES            :       0.0269654
AES           :       0.0053229
AXC           :       0.0076034
disp          :      -0.0090758
XB            :       0.0000000
fix           :       0.0000000
total E       :     -20.8849406
atomizationE  :       4.2829638     2687.60
(atE without considerung molecular charge,
 total energy contains solvation terms)
H-L gap (eV)  :         11.9945
 
             =======================================
             |                                     |
             |    Approximate Normal Coordinate    |
             |   Rational Function Optimization    |
             |                                     |
             =======================================
Ref. for RF algo: F.Eckert, P.Pulay, H.-J.Werner
                  J.Comput.Chem. 18 (1997) 1473.
ANC idea implemented by S. Grimme in the 2000ers (unpublished)
restraining potential by S. Ehrlich.
dumping coords to <xtbopt.coord> and <xtbopt.log
 optlevel               1
 Maxcycle             200
 Maxmicro              20
 Econv         1.000000000000000E-006
 Gconv         8.000000000000000E-004
 Maxdispl       1.00000000000000     
 Hlow          1.000000000000000E-002
 S6             20.0000000000000     
 Nvar               48

generating ANC from model Hessian ...
 Shifting diagonal of input Hessian by   7.623368477268509E-003
 Lowest  eigenvalues of input Hessian
   -0.000000   -0.000000   -0.000000   -0.000000    0.000000    0.000000
    0.010000    0.010855    0.011302    0.015524    0.018502    0.021549
    0.022479    0.037669    0.041667    0.048330    0.050711    0.058600
 Highest eigenvalues
    1.203421    1.204642    1.217998    1.277206    1.296781    1.504880
 
cpu  time for ANC gen    0.01 s
wall time for ANC gen    0.01 s
................................................................................
.............................. CYCLE    1 ......................................
................................................................................
  q data taken from xtbrestart
  CAMM data taken from xtbrestart
   1    -21.1460360 -0.211460E+02  0.246E-05   11.99       0.0  T
   2    -21.1460360 -0.487432E-11  0.102E-05   11.99    2309.2  T
   3    -21.1460360 -0.309086E-12  0.631E-06   11.99    3733.2  T
speedup  1.00
cpu  time for SCC    0.00 s
wall time for SCC    0.00 s
speedup  1.00
cpu  time for grad    0.00 s
wall time for grad    0.00 s
 E :    -20.88494059  G :  0.000217    pred/act E change:  0.000D+00  0.189D-10
Maxdispl :   0.0006   ||displ|| :   0.0010   Lambda : -0.587D-07
Largest |displ|/coords:  0.0006 (   2)  0.0003 (   6)  0.0003 (   3)
................................................................................
.............................. CYCLE    2 ......................................
................................................................................
   1    -21.1460178 -0.211460E+02  0.535E-04   11.99       0.0  T
   2    -21.1460178 -0.367322E-09  0.310E-04   11.99      76.1  T
   3    -21.1460178 -0.641620E-11  0.844E-05   11.99     279.2  T
speedup  1.00
cpu  time for SCC    0.00 s
wall time for SCC    0.00 s
speedup  1.00
cpu  time for grad    0.00 s
wall time for grad    0.00 s
 E :    -20.88494064  G :  0.000125    pred/act E change:  0.000D+00 -0.430D-07
Maxdispl :   0.0012   ||displ|| :   0.0017   Lambda : -0.487D-07
Largest |displ|/coords:  0.0012 (   2)  0.0007 (   3)  0.0006 (   1)
ancopt converged in          2 cycles
total energy gain (kcal):     -0.0000
================
 final structure:
================
    18
        -20.88494064
C          -2.47685654552413   -0.33970712824862   -0.06698837104055
H          -2.11349645785073   -1.36462937274997   -0.06383038925176
H          -2.12215919072608    0.14735984594545   -0.97279924588800
H          -3.56420586203197   -0.36116724490777   -0.09445173630314
C          -1.98799004361434    0.40720209887215    1.16802677394295
H          -0.89609973812890    0.40164553311712    1.18741299272265
H          -2.33703943489654   -0.10750163495689    2.06573592399520
C          -2.48399621350128    1.85109293999342    1.19129394839416
H          -3.57666165780359    1.85718855076521    1.17285153136936
H          -2.13628319262369    2.36617105198911    0.29236109139912
C          -1.99444958892092    2.60117341149009    2.42568328553200
H          -0.90365978937804    2.61079940171801    2.45180220712935
H          -2.34209181453798    2.10195645934014    3.33150968330712
C          -2.48841098246877    4.04353479071944    2.45221744584756
H          -3.58864337301619    4.05963321401562    2.44584786259812
H          -2.13409544949232    4.57412577138577    1.55570051752020
O          -1.99339952380444    4.66417595809358    3.61981199218459
H          -2.29895564168011    5.57630646341815    3.64756668654108
 
 Bond Distances (Angstroems)
 ---------------------------
C1-H2=1.0874         C1-H3=1.0879         C1-H4=1.0879         C1-C5=1.5239         H2-C1=1.0874         H3-C1=1.0879         
H4-C1=1.0879         C5-C1=1.5239         C5-H6=1.0921         C5-H7=1.0921         C5-C8=1.5269         H6-C5=1.0921         
H7-C5=1.0921         C8-C5=1.5269         C8-H9=1.0928         C8-H10=1.0928        C8-C11=1.5251        H9-C8=1.0928         
H10-C8=1.0928        C11-C8=1.5251        C11-H12=1.0911       C11-H13=1.0911       C11-C14=1.5248       H12-C11=1.0911       
H13-C11=1.0911       C14-C11=1.5248       C14-H15=1.1004       C14-H16=1.1004       C14-O17=1.4119       H15-C14=1.1004       
H16-C14=1.1004       O17-C14=1.4119       O17-H18=0.9623       H18-O17=0.9623       
 C  H  Rav=1.0924 sigma=0.0042  Rmin=1.0874  Rmax=1.1004    11
 C  C  Rav=1.5252 sigma=0.0011  Rmin=1.5239  Rmax=1.5269     4
 O  H  Rav=0.9623 sigma=0.0000  Rmin=0.9623  Rmax=0.9623     1
 O  C  Rav=1.4119 sigma=0.0000  Rmin=1.4119  Rmax=1.4119     1
 
 selected bond angles (degree)
 --------------------
H3-C1-H2=108.39                H4-C1-H2=108.39                H4-C1-H3=108.28                C5-C1-H2=110.64                
C5-C1-H3=110.53                C5-C1-H4=110.53                H6-C5-C1=109.43                H7-C5-C1=109.43                
H7-C5-H6=107.61                C8-C5-C1=111.82                C8-C5-H6=109.23                C8-C5-H7=109.23                
H9-C8-C5=109.26                H10-C8-C5=109.26               H10-C8-H9=107.55               C11-C8-C5=111.91               
C11-C8-H9=109.38               C11-C8-H10=109.38              
 
 selected dihedral angles (degree)
 ---------------------------------
H6-C5-C1-H2= 58.88            H6-C5-C1-H3=298.81            H6-C5-C1-H4=178.94            H7-C5-C1-H2=301.19            
H7-C5-C1-H3=181.12            H7-C5-C1-H4= 61.26            C8-C5-C1-H2=180.03            C8-C5-C1-H3= 59.97            
C8-C5-C1-H4=300.10            H9-C8-C5-C1= 58.78            H9-C8-C5-H6=180.05            H9-C8-C5-H7=297.51            
H10-C8-C5-C1=301.36           H10-C8-C5-H6= 62.63           H10-C8-C5-H7=180.09           C11-C8-C5-C1=180.07           
C11-C8-C5-H6=301.34           C11-C8-C5-H7= 58.80           
 
             =======================================
             |                                     |
             |        S C C  calculation           |
             |                                     |
             =======================================
 #proc     :            2
 Ncao      :           36
 Nao       :           36
 Nel       :           38
 T(el)     :   300.0
 intcut    :    25.0
 scfconv   :  0.100E-05
   qconv   :  0.100E-03
 intneglect:  0.100E-07
 broydamp  :      0.400
 Nshell    :           24
 iter      E             dE          RMSdq      gap      omega  full diag
   1    -21.1460178 -0.211460E+02  0.131E-05   11.99       0.0  T
   2    -21.1460178 -0.913047E-12  0.515E-06   11.99    4579.9  T
   3    -21.1460178 -0.888178E-13  0.320E-06   11.99    7368.4  T
speedup  1.00
cpu  time for SCC    0.01 s
wall time for SCC    0.01 s

          eigenvalues
 #    :           7          8          9         10         11         12         13         14
 occ. :        2.000      2.000      2.000      2.000      2.000      2.000      2.000      2.000
 eps  :       -14.976    -14.531    -13.900    -13.876    -13.300    -12.926    -12.921    -12.211
 #    :          15         16         17         18         19         20         21         22
 occ. :        2.000      2.000      2.000      2.000      2.000      0.000      0.000      0.000
 eps  :       -11.961    -11.919    -11.684    -11.496    -11.075      0.919      2.556      3.100
 #    :          23         24         25         26         27         28         29         30
 occ. :        0.000      0.000      0.000      0.000      0.000      0.000      0.000      0.000
 eps  :         3.177      3.571      3.946      4.407      4.483      4.633      5.075      5.784
 

   #   Z            q   n(s)   n(p)   n(d)      C6AA      α(0)    relVol
   1   6 C     -0.103  1.037  3.067  0.000    22.670     6.810     0.551
   2   1 H      0.035  0.965  0.000  0.000     2.514     2.479     0.491
   3   1 H      0.034  0.966  0.000  0.000     2.524     2.484     0.492
   4   1 H      0.034  0.966  0.000  0.000     2.524     2.484     0.492
   5   6 C     -0.054  1.048  3.006  0.000    21.623     6.632     0.537
   6   1 H      0.032  0.968  0.000  0.000     2.549     2.496     0.494
   7   1 H      0.032  0.968  0.000  0.000     2.549     2.496     0.494
   8   6 C     -0.062  1.052  3.009  0.000    21.733     6.642     0.538
   9   1 H      0.031  0.969  0.000  0.000     2.566     2.505     0.496
  10   1 H      0.031  0.969  0.000  0.000     2.566     2.505     0.496
  11   6 C     -0.065  1.051  3.014  0.000    21.811     6.656     0.539
  12   1 H      0.048  0.952  0.000  0.000     2.336     2.390     0.473
  13   1 H      0.048  0.952  0.000  0.000     2.337     2.390     0.473
  14   6 C      0.089  1.035  2.876  0.000    19.444     6.342     0.513
  15   1 H      0.013  0.987  0.000  0.000     2.834     2.632     0.521
  16   1 H      0.013  0.987  0.000  0.000     2.834     2.632     0.521
  17   8 O     -0.443  1.708  4.735  0.000    22.208     6.376     1.227
  18   1 H      0.284  0.716  0.000  0.000     0.709     1.322     0.262

 Mol. C6AA /au*bohr^6 :       2133.983698
 Mol. C8AA /au*bohr^6 :      43833.052637
 Mol. a(0) /au        :         68.275547

 
 Wiberg/Mayer (AO) data. WBOs > 0.1 written file <wbo>
 largest (>0.05) Wiberg bond orders for each atom
           total WBO             WBO to atom ...
     1  C   3.997    C    5 1.019    H    3 0.988    H    4 0.988    H    2 0.987
     2  H   0.998    C    1 0.987
     3  H   0.999    C    1 0.988
     4  H   0.999    C    1 0.988
     5  C   3.997    C    1 1.019    C    8 1.008    H    7 0.978    H    6 0.978
     6  H   0.999    C    5 0.978
     7  H   0.999    C    5 0.978
     8  C   3.997    C    5 1.008    C   11 1.007    H    9 0.977    H   10 0.977
     9  H   0.999    C    8 0.977
    10  H   0.999    C    8 0.977
    11  C   3.994    C    8 1.007    C   14 1.004    H   13 0.976    H   12 0.976
    12  H   0.998    C   11 0.976
    13  H   0.998    C   11 0.976
    14  C   3.957    C   11 1.004    O   17 0.994    H   15 0.972    H   16 0.972
    15  H   1.000    C   14 0.972
    16  H   1.000    C   14 0.972
    17  O   1.950    C   14 0.994    H   18 0.905
    18  H   0.919    O   17 0.905
 
molecular dipole:
                 x           y           z       tot (Debye)
 q only:       -0.246       0.075      -0.359
   full:       -0.389       0.275      -0.477       1.712
molecular quadrupole (traceless):
                xx          xy          yy          xz          yz          zz
 q only:        1.957      -4.065       4.983      -0.143      -2.197      -6.940
  q+dip:        3.610      -7.030       7.722      -1.933      -3.473     -11.332
   full:        2.832      -7.153       8.258      -1.344      -2.680     -11.090
 SCC converged in            3  cycles
 
SCC energy    :     -21.1460178
rep           :       0.2610908
ES            :       0.0269682
AES           :       0.0053225
AXC           :       0.0076047
disp          :      -0.0090757
XB            :       0.0000000
fix           :       0.0000000
total E       :     -20.8849406
atomizationE  :       4.2829638     2687.60
(atE without considerung molecular charge,
 total energy contains solvation terms)
H-L gap (eV)  :         11.9935
 !!!!!!!!!!!!!!!!!!!!!!!!!!!!!!!!!!!
 ! Note: the input coordinates are !
 ! NOT overwritten. The optimized  !
 ! ones are on file <xtbopt.coord> !
 ! (or on <xtbopt.xyz> if it was a !
 ! xyz file)                       !
 !!!!!!!!!!!!!!!!!!!!!!!!!!!!!!!!!!!
 
Refinement of some symmetry elements was terminated before convergence was reached.
Some symmetry elements may remain unidentified.
Molecule has the following symmetry elements: (sigma) 
It seems to be the Cs point group
cs  symmetry found (for desy threshold:  0.10E+00) used in thermo
  q data taken from xtbrestart
  CAMM data taken from xtbrestart
 
             =======================================
             |                                     |
             |         Numerical Hessian           |
             |                                     |
             =======================================
step length          :   0.00500
SCC accuracy         :   0.30000
Hessian scale factor :   1.00000
frozen atoms in %    :   0.00000    0
RMS gradient         :   0.00012
estimated CPU  time      0.02 min
estimated wall time      0.02 min
 
 writing file <hessian>.
 
 projected vibrational frequencies (cm-1)
eig.   :       -0.00    -0.00     0.00     0.00     0.00     0.00
eig.   :       66.75    96.62   130.81   137.24   233.43   290.58
eig.   :      310.54   365.43   478.45   772.67   803.73   880.36
eig.   :      941.43   977.36  1017.57  1076.81  1090.70  1107.05
eig.   :     1130.75  1162.70  1211.34  1212.74  1263.03  1270.40
eig.   :     1271.03  1290.01  1327.72  1372.31  1383.56  1416.13
eig.   :     1492.83  1494.48  1498.24  1500.93  1504.60  1507.58
eig.   :     2849.32  2882.84  2957.56  2973.44  2975.06  2985.09
eig.   :     2989.53  3000.64  3030.26  3033.30  3038.82  3564.44
 reduced masses (amu)
   1:  9.68   2:  9.38   3:  9.14   4: 11.09   5: 10.28   6: 12.23   7: 10.25   8:  5.89
   9:  7.77  10: 10.15  11:  2.09  12:  2.14  13: 10.56  14: 10.10  15:  9.94  16:  1.67
  17:  2.18  18:  2.63  19:  6.12  20:  2.25  21:  8.81  22: 11.86  23:  8.95  24:  7.88
  25:  8.02  26:  5.17  27:  3.61  28:  5.01  29:  3.12  30:  1.47  31:  3.83  32:  2.12
  33:  4.22  34:  5.07  35:  5.03  36:  3.18  37:  1.93  38:  1.84  39:  1.98  40:  1.78
  41:  1.53  42:  1.64  43:  1.97  44:  1.42  45:  1.93  46:  2.00  47:  1.45  48:  1.49
  49:  2.02  50:  1.50  51:  1.96  52:  1.84  53:  1.35  54:  1.88
 IR intensities (amu)
   1:  0.25   2:  0.11   3:  0.17   4:  0.12   5:  0.25   6:  0.10   7:  0.44   8:  0.16
   9:  0.20  10:  0.21  11:  0.03  12:  0.49  13:  0.23  14:  0.14  15:  0.28  16:  0.02
  17:  0.09  18:  0.09  19:  0.16  20:  0.12  21:  0.15  22:  0.85  23:  0.70  24:  0.06
  25:  0.41  26:  0.29  27:  0.25  28:  0.13  29:  0.04  30:  0.01  31:  0.35  32:  0.02
  33:  0.22  34:  0.12  35:  0.25  36:  0.05  37:  0.06  38:  0.09  39:  0.08  40:  0.05
  41:  0.03  42:  0.02  43:  0.39  44:  0.31  45:  0.11  46:  0.25  47:  0.14  48:  0.20
  49:  0.36  50:  0.28  51:  0.29  52:  0.27  53:  0.18  54:  0.14
 output can be read by thermo (or use thermo option).
 writing <g98.out> molden fake output.
 recommended (thermochemical) frequency scaling factor: 1.0
                    ==================
                    thermo calculation
                    ==================
Nvib :   48 Nimag : 0  symmetry :   cs  rot number :  1  scale factor : 1.00 sthr :  50.
omega= 66.75     Gvib=    -1.266     Grot=    -0.971     Gused=    -1.196
omega= 96.62     Gvib=    -1.050     Grot=    -0.861     Gused=    -1.037
omega=130.81     Gvib=    -0.875     Grot=    -0.772     Gused=    -0.873
omega=137.24     Gvib=    -0.847     Grot=    -0.757     Gused=    -0.846
omega=233.43     Gvib=    -0.552     Grot=    -0.600     Gused=    -0.552
omega=290.58     Gvib=    -0.438     Grot=    -0.535     Gused=    -0.439
 
   temp. (K)  partition function   enthalpy   heat capacity  entropy
                                   cal/mol     cal/K/mol   cal/K/mol   J/K/mol
 298.15  VIB   167.                 3404.706     22.117     21.293
         ROT  0.193E+06              888.752      2.981     27.165
         INT  0.321E+08             4293.458     25.098     48.458
         TR   0.801E+27             1481.254      4.968     39.324
         TOT                        5774.7121    30.0662    87.7825   367.2806
                     Eh         kcal/mol          kJ/mol 
ZPVE            0.162589         102.026         426.875    
H(0)-H(T)+PV    0.920259E-02     5.77471         24.1613    
H(T)            0.171791         107.801         451.036    
T*S             0.417083E-01     26.1724         109.505    
G(T)            0.130083         81.6283         341.532    
    -20.75485766  <=== TOTAL FREE ENERGY in Eh incl. el.,ZPVE,RRHO,solv. parts
 
Eat (element increment corrected) /kcal :  1950.562
        -303.528  <=== HOF(298)/kcal, to be compared to exptl. data
 
 normal mode %tage of torsion character
   1:  0.00   2:  0.00   3:  0.00   4:  0.00   5:  0.00   6:  0.00   7:  0.66   8:  0.62
   9:  0.73  10:  0.11  11:  0.83  12:  0.97  13:  0.07  14:  0.08  15:  0.06  16:  0.49
  17:  0.42  18:  0.54  19:  0.03  20:  0.51  21:  0.09  22:  0.11  23:  0.07  24:  0.07
  25:  0.02  26:  0.77  27:  0.05  28:  0.53  29:  0.31  30:  0.11  31:  0.03  32:  0.09
  33:  0.05  34:  0.05  35:  0.03  36:  0.44  37:  0.64  38:  0.59  39:  0.62  40:  0.58
  41:  0.26  42:  0.32  43:  0.10  44:  0.00  45:  0.32  46:  0.20  47:  0.01  48:  0.01
  49:  0.11  50:  0.01  51:  0.21  52:  0.02  53:  0.00  54:  0.00
 recommended # of modes for mode following           4
 
speedup  0.98
cpu  time for all    1.15 s
wall time for all    1.17 s
