 Entering Gaussian System
 *********************************************
 Gaussian 98:
 frequency output generated by the xtb code
 *********************************************
                         Standard orientation:
 --------------------------------------------------------------------
  Center     Atomic     Atomic              Coordinates (Angstroms)
  Number     Number      Type              X           Y           Z
 --------------------------------------------------------------------
    1          6             0       -2.476859   -0.339694   -0.066979
    2          1             0       -2.113504   -1.364618   -0.063821
    3          1             0       -2.122162    0.147369   -0.972792
    4          1             0       -3.564208   -0.361149   -0.094439
    5          6             0       -1.987984    0.407215    1.168033
    6          1             0       -0.896093    0.401652    1.187415
    7          1             0       -2.337033   -0.107486    2.065744
    8          6             0       -2.483982    1.851108    1.191299
    9          1             0       -3.576648    1.857209    1.172861
   10          1             0       -2.136270    2.366183    0.292364
   11          6             0       -1.994427    2.601188    2.425686
   12          1             0       -0.903638    2.610808    2.451801
   13          1             0       -2.342069    2.101974    3.331514
   14          6             0       -2.488381    4.043552    2.452219
   15          1             0       -3.588614    4.059656    2.445853
   16          1             0       -2.134066    4.574140    1.555700
   17          8             0       -1.993362    4.664193    3.619811
   18          1             0       -2.298914    5.576325    3.647565
 --------------------------------------------------------------------
     1 basis functions        1 primitive gaussians
     1 alpha electrons        1 beta electrons
 
 Harmonic frequencies (cm**-1), IR intensities (KM/Mole),
 Raman scattering activities (A**4/amu), Raman depolarization ratios,
 reduced masses (AMU), force constants (mDyne/A) and normal coordinates:
                      1                      2                      3
                        a                      a                      a 
 Frequencies --    66.7460                96.6153               130.8094
 Red. masses --    10.2549                 5.8930                 7.7684
 Frc consts  --     0.0000                 0.0000                 0.0000
 IR Inten    --     0.4425                 0.1637                 0.2049
 Raman Activ --     0.0000                 0.0000                 0.0000
 Depolar     --     0.0000                 0.0000                 0.0000
 Atom AN      X      Y      Z        X      Y      Z        X      Y      Z
   1   6     0.35   0.12  -0.21     0.03   0.01  -0.02    -0.19  -0.07   0.11
   2   1     0.11   0.04  -0.07     0.15   0.05  -0.09    -0.05  -0.02   0.03
   3   1     0.20   0.08  -0.00    -0.18   0.09  -0.03    -0.15  -0.05  -0.02
   4   1     0.10   0.03  -0.18     0.01  -0.15   0.14    -0.06  -0.02   0.14
   5   6    -0.14  -0.05   0.08     0.23   0.08  -0.14     0.21   0.08  -0.13
   6   1    -0.04   0.01   0.13     0.07   0.14  -0.16     0.06  -0.01  -0.11
   7   1    -0.12  -0.06  -0.03     0.22  -0.03  -0.01     0.10   0.07   0.01
   8   6    -0.24  -0.08   0.15    -0.26  -0.09   0.16     0.35   0.12  -0.21
   9   1    -0.07  -0.04   0.04    -0.08  -0.13   0.09     0.10   0.07  -0.24
  10   1    -0.08  -0.01   0.05    -0.16   0.04   0.05     0.26   0.06   0.02
  11   6    -0.25  -0.09   0.15    -0.31  -0.11   0.19    -0.31  -0.11   0.19
  12   1    -0.07  -0.03   0.04    -0.09  -0.16   0.14    -0.09  -0.04   0.23
  13   1    -0.07  -0.02   0.05    -0.21   0.05   0.05    -0.24  -0.08  -0.03
  14   6    -0.19  -0.07   0.12     0.28   0.10  -0.17    -0.23  -0.08   0.14
  15   1    -0.05  -0.00   0.18     0.08   0.16  -0.20    -0.07  -0.00   0.13
  16   1    -0.16  -0.07  -0.04     0.27  -0.04  -0.01    -0.13  -0.07  -0.01
  17   8     0.44   0.16  -0.27    -0.03  -0.01   0.01     0.20   0.07  -0.12
  18   1     0.12   0.04  -0.07     0.12   0.04  -0.07     0.05   0.02  -0.03
                      4                      5                      6
                        a                      a                      a 
 Frequencies --   137.2384               233.4285               290.5810
 Red. masses --    10.1463                 2.0930                 2.1353
 Frc consts  --     0.0000                 0.0000                 0.0000
 IR Inten    --     0.2102                 0.0316                 0.4860
 Raman Activ --     0.0000                 0.0000                 0.0000
 Depolar     --     0.0000                 0.0000                 0.0000
 Atom AN      X      Y      Z        X      Y      Z        X      Y      Z
   1   6    -0.23   0.29  -0.20    -0.04  -0.01   0.02     0.00  -0.00  -0.00
   2   1    -0.13   0.06  -0.17    -0.46  -0.16   0.28     0.02   0.00  -0.01
   3   1    -0.07   0.15  -0.02     0.37  -0.34  -0.02    -0.01   0.01   0.00
   4   1    -0.07   0.15  -0.03    -0.02   0.46  -0.19     0.00  -0.02   0.01
   5   6     0.05  -0.18  -0.02     0.22   0.08  -0.13    -0.01  -0.00   0.00
   6   1     0.01  -0.10  -0.04     0.06   0.07  -0.13    -0.00  -0.01   0.01
   7   1     0.01  -0.10  -0.04     0.16   0.01  -0.01    -0.01   0.01   0.00
   8   6     0.22  -0.14   0.28    -0.11  -0.04   0.06     0.03   0.01  -0.02
   9   1     0.06  -0.02   0.09    -0.03  -0.09   0.09     0.01   0.01   0.00
  10   1     0.06  -0.02   0.09    -0.12   0.04   0.01     0.01  -0.00  -0.01
  11   6     0.22  -0.13   0.28    -0.07  -0.02   0.04     0.07   0.02  -0.04
  12   1     0.06  -0.02   0.09    -0.02  -0.02   0.01     0.02   0.05  -0.05
  13   1     0.06  -0.02   0.09    -0.03   0.00   0.02     0.07  -0.01  -0.01
  14   6     0.04  -0.18  -0.04     0.00   0.00  -0.00    -0.09  -0.03   0.06
  15   1     0.01  -0.11  -0.05     0.00   0.02  -0.01    -0.03  -0.02   0.02
  16   1     0.01  -0.11  -0.05     0.02  -0.01  -0.00    -0.04  -0.00   0.02
  17   8    -0.25   0.32  -0.22    -0.01  -0.00   0.00    -0.20  -0.07   0.12
  18   1    -0.11   0.07  -0.15     0.04   0.02  -0.03     0.78   0.27  -0.48
                      7                      8                      9
                        a                      a                      a 
 Frequencies --   310.5418               365.4303               478.4530
 Red. masses --    10.5639                10.0955                 9.9413
 Frc consts  --     0.0000                 0.0000                 0.0000
 IR Inten    --     0.2262                 0.1415                 0.2809
 Raman Activ --     0.0000                 0.0000                 0.0000
 Depolar     --     0.0000                 0.0000                 0.0000
 Atom AN      X      Y      Z        X      Y      Z        X      Y      Z
   1   6     0.07  -0.42  -0.13     0.07   0.20   0.23     0.01   0.23   0.14
   2   1     0.10  -0.09   0.11     0.05   0.07   0.12    -0.07   0.04  -0.09
   3   1     0.03  -0.21  -0.08     0.02   0.03   0.05    -0.01   0.15   0.08
   4   1     0.02  -0.21  -0.08     0.02   0.03   0.05    -0.00   0.15   0.08
   5   6    -0.20   0.07  -0.29    -0.09   0.41   0.09     0.15  -0.08   0.19
   6   1    -0.06   0.03  -0.07    -0.03   0.15   0.05     0.04   0.01   0.06
   7   1    -0.05   0.04  -0.07    -0.02   0.16   0.05     0.03   0.00   0.07
   8   6    -0.09   0.14  -0.07    -0.14   0.29  -0.05    -0.15  -0.19  -0.35
   9   1    -0.03   0.08   0.01    -0.04   0.12   0.01    -0.04  -0.11  -0.13
  10   1    -0.03   0.08   0.01    -0.03   0.12   0.01    -0.04  -0.11  -0.13
  11   6     0.13  -0.14   0.13     0.14  -0.28   0.07    -0.12  -0.23  -0.32
  12   1     0.04  -0.08   0.01     0.04  -0.11  -0.01    -0.03  -0.15  -0.13
  13   1     0.03  -0.08   0.01     0.03  -0.11  -0.00    -0.03  -0.15  -0.13
  14   6     0.18  -0.08   0.24     0.09  -0.40  -0.09     0.16  -0.11   0.21
  15   1     0.05  -0.06   0.05     0.02  -0.15  -0.05     0.05  -0.02   0.06
  16   1     0.05  -0.06   0.05     0.02  -0.16  -0.05     0.04  -0.03   0.06
  17   8    -0.09   0.49   0.14    -0.07  -0.21  -0.25    -0.02   0.37   0.19
  18   1    -0.10   0.10  -0.09    -0.05  -0.06  -0.11    -0.07   0.07  -0.08
                     10                     11                     12
                        a                      a                      a 
 Frequencies --   772.6706               803.7272               880.3615
 Red. masses --     1.6720                 2.1765                 2.6302
 Frc consts  --     0.0000                 0.0000                 0.0000
 IR Inten    --     0.0217                 0.0872                 0.0919
 Raman Activ --     0.0000                 0.0000                 0.0000
 Depolar     --     0.0000                 0.0000                 0.0000
 Atom AN      X      Y      Z        X      Y      Z        X      Y      Z
   1   6     0.01   0.00  -0.01    -0.04  -0.01   0.03     0.10   0.04  -0.06
   2   1    -0.03  -0.01   0.02     0.08   0.03  -0.05    -0.10  -0.04   0.06
   3   1    -0.10  -0.06  -0.07     0.16   0.12   0.14    -0.18  -0.16  -0.18
   4   1    -0.00   0.02   0.14    -0.00  -0.06  -0.24     0.01   0.10   0.29
   5   6     0.11   0.04  -0.06    -0.17  -0.06   0.10     0.10   0.03  -0.06
   6   1     0.02  -0.22   0.28    -0.03   0.15  -0.32     0.02   0.10   0.22
   7   1    -0.32   0.11  -0.09     0.32  -0.04   0.15    -0.12  -0.14  -0.16
   8   6     0.14   0.05  -0.08    -0.01  -0.00   0.00    -0.21  -0.07   0.13
   9   1     0.02  -0.22   0.38    -0.00   0.14   0.07    -0.05   0.10  -0.26
  10   1    -0.41   0.09  -0.15     0.01  -0.13  -0.07     0.25  -0.03   0.14
  11   6     0.10   0.03  -0.06     0.17   0.06  -0.10     0.03   0.01  -0.02
  12   1     0.01  -0.11   0.32     0.04  -0.23   0.30     0.01  -0.26  -0.07
  13   1    -0.31   0.00  -0.14    -0.34   0.12  -0.12    -0.06   0.24   0.10
  14   6     0.02   0.01  -0.01     0.09   0.03  -0.06     0.18   0.06  -0.11
  15   1     0.00  -0.11   0.07     0.02  -0.25   0.16     0.03  -0.27   0.19
  16   1    -0.11   0.07  -0.00    -0.24   0.17  -0.02    -0.27   0.19  -0.04
  17   8    -0.01  -0.00   0.01    -0.04  -0.02   0.03    -0.06  -0.02   0.03
  18   1     0.01   0.00  -0.01     0.02   0.01  -0.01     0.01   0.00  -0.01
                     13                     14                     15
                        a                      a                      a 
 Frequencies --   941.4334               977.3592              1017.5694
 Red. masses --     6.1242                 2.2544                 8.8116
 Frc consts  --     0.0000                 0.0000                 0.0000
 IR Inten    --     0.1606                 0.1191                 0.1483
 Raman Activ --     0.0000                 0.0000                 0.0000
 Depolar     --     0.0000                 0.0000                 0.0000
 Atom AN      X      Y      Z        X      Y      Z        X      Y      Z
   1   6    -0.06   0.36   0.12    -0.13  -0.05   0.08    -0.09  -0.02  -0.15
   2   1     0.24   0.18   0.50     0.09   0.03  -0.06     0.04   0.01   0.07
   3   1     0.03  -0.20  -0.10     0.16   0.14   0.18    -0.01  -0.09  -0.08
   4   1    -0.00  -0.21  -0.08    -0.02  -0.10  -0.26    -0.02  -0.09  -0.07
   5   6    -0.16   0.19  -0.16     0.10   0.03  -0.06     0.09   0.01   0.15
   6   1    -0.04  -0.07  -0.11     0.02  -0.32  -0.06     0.02  -0.06   0.01
   7   1    -0.04  -0.07  -0.11    -0.09   0.29   0.10     0.03  -0.06   0.00
   8   6     0.20  -0.35   0.13     0.05   0.02  -0.03     0.06   0.14   0.18
   9   1     0.05  -0.14   0.01     0.01  -0.32  -0.13     0.02  -0.04   0.00
  10   1     0.05  -0.14   0.01    -0.04   0.31   0.15     0.01  -0.04   0.00
  11   6    -0.05  -0.10  -0.14    -0.14  -0.05   0.09    -0.29   0.43  -0.22
  12   1    -0.01  -0.01  -0.02    -0.03  -0.17  -0.25    -0.07   0.11  -0.06
  13   1    -0.01  -0.01  -0.02     0.12   0.20   0.20    -0.07   0.11  -0.06
  14   6    -0.04   0.01  -0.06     0.15   0.05  -0.09     0.28  -0.33   0.26
  15   1    -0.01   0.03   0.00     0.03  -0.16   0.13     0.07  -0.07   0.06
  16   1    -0.01   0.03   0.00    -0.17   0.11  -0.04     0.06  -0.07   0.06
  17   8     0.03   0.06   0.08    -0.04  -0.01   0.02    -0.01  -0.11  -0.09
  18   1     0.00   0.01   0.01     0.00   0.00  -0.00    -0.20  -0.08  -0.37
                     16                     17                     18
                        a                      a                      a 
 Frequencies --  1076.8075              1090.7000              1107.0478
 Red. masses --    11.8616                 8.9496                 7.8817
 Frc consts  --     0.0000                 0.0000                 0.0000
 IR Inten    --     0.8535                 0.6989                 0.0650
 Raman Activ --     0.0000                 0.0000                 0.0000
 Depolar     --     0.0000                 0.0000                 0.0000
 Atom AN      X      Y      Z        X      Y      Z        X      Y      Z
   1   6    -0.08  -0.15  -0.22     0.17   0.04   0.29     0.15   0.04   0.27
   2   1    -0.04  -0.05  -0.10    -0.04  -0.02  -0.08    -0.02  -0.01  -0.03
   3   1    -0.03  -0.02  -0.05     0.03   0.14   0.14     0.03   0.10   0.12
   4   1    -0.02  -0.02  -0.06     0.04   0.14   0.13     0.04   0.10   0.12
   5   6     0.06   0.20   0.22    -0.18  -0.09  -0.35    -0.08  -0.26  -0.28
   6   1     0.02   0.09   0.09    -0.05   0.02  -0.07    -0.02  -0.16  -0.12
   7   1     0.02   0.09   0.08    -0.05   0.02  -0.07    -0.01  -0.16  -0.12
   8   6     0.13   0.08   0.27    -0.04  -0.15  -0.15     0.10   0.28   0.33
   9   1     0.04   0.05   0.09    -0.01   0.02  -0.02     0.03   0.21   0.16
  10   1     0.04   0.05   0.09    -0.02   0.01  -0.02     0.02   0.21   0.16
  11   6    -0.10  -0.16  -0.26    -0.02   0.25   0.11    -0.14  -0.17  -0.33
  12   1    -0.03  -0.00  -0.06    -0.01   0.25   0.13    -0.04  -0.13  -0.14
  13   1    -0.04  -0.01  -0.05    -0.01   0.25   0.13    -0.04  -0.14  -0.14
  14   6    -0.19  -0.25  -0.45    -0.02  -0.34  -0.24     0.00   0.07   0.04
  15   1    -0.03  -0.02  -0.06     0.00  -0.06  -0.02    -0.00   0.07   0.03
  16   1    -0.03  -0.01  -0.06     0.01  -0.06  -0.02    -0.01   0.07   0.03
  17   8     0.18   0.20   0.40     0.14   0.08   0.28    -0.02  -0.00  -0.04
  18   1     0.00   0.04   0.03    -0.10  -0.02  -0.18    -0.02  -0.01  -0.04
                     19                     20                     21
                        a                      a                      a 
 Frequencies --  1130.7464              1162.7012              1211.3413
 Red. masses --     8.0227                 5.1650                 3.6086
 Frc consts  --     0.0000                 0.0000                 0.0000
 IR Inten    --     0.4101                 0.2946                 0.2536
 Raman Activ --     0.0000                 0.0000                 0.0000
 Depolar     --     0.0000                 0.0000                 0.0000
 Atom AN      X      Y      Z        X      Y      Z        X      Y      Z
   1   6     0.07  -0.19   0.00    -0.06  -0.02   0.04    -0.06   0.07  -0.06
   2   1    -0.11  -0.09  -0.24     0.03   0.01  -0.02     0.04   0.04   0.09
   3   1    -0.03   0.14   0.08     0.05   0.04   0.06     0.01  -0.07  -0.05
   4   1     0.01   0.15   0.06    -0.01  -0.03  -0.08    -0.01  -0.07  -0.03
   5   6    -0.21   0.38  -0.12     0.12   0.04  -0.07     0.10  -0.12   0.10
   6   1    -0.06   0.27   0.07     0.03  -0.09   0.05     0.02   0.02   0.04
   7   1    -0.05   0.27   0.07    -0.08   0.08  -0.02     0.02   0.02   0.05
   8   6     0.24  -0.39   0.17    -0.17  -0.06   0.10    -0.09   0.01  -0.15
   9   1     0.06  -0.06   0.07    -0.04  -0.04  -0.18    -0.02   0.16   0.07
  10   1     0.06  -0.06   0.07     0.11   0.07   0.13    -0.02   0.16   0.06
  11   6    -0.06  -0.10  -0.15     0.25   0.09  -0.15     0.12  -0.29   0.04
  12   1    -0.01   0.02   0.01     0.06  -0.24   0.09     0.03   0.11   0.11
  13   1    -0.00   0.03  -0.00    -0.17   0.20  -0.02     0.03   0.11   0.11
  14   6     0.08   0.14   0.21    -0.34  -0.12   0.21    -0.10   0.14  -0.07
  15   1     0.01   0.11   0.08    -0.08  -0.08  -0.42    -0.02   0.32   0.14
  16   1     0.01   0.10   0.08     0.28   0.15   0.30    -0.03   0.32   0.15
  17   8    -0.06  -0.08  -0.15     0.13   0.05  -0.08     0.08  -0.09   0.07
  18   1    -0.07  -0.04  -0.14     0.01   0.00  -0.01    -0.29  -0.11  -0.54
                     22                     23                     24
                        a                      a                      a 
 Frequencies --  1212.7361              1263.0320              1270.3975
 Red. masses --     5.0108                 3.1195                 1.4714
 Frc consts  --     0.0000                 0.0000                 0.0000
 IR Inten    --     0.1313                 0.0415                 0.0081
 Raman Activ --     0.0000                 0.0000                 0.0000
 Depolar     --     0.0000                 0.0000                 0.0000
 Atom AN      X      Y      Z        X      Y      Z        X      Y      Z
   1   6     0.24   0.08  -0.14     0.18   0.06  -0.11    -0.02  -0.00   0.01
   2   1    -0.10  -0.04   0.06    -0.07  -0.02   0.04     0.03   0.01  -0.01
   3   1    -0.16  -0.13  -0.19    -0.11  -0.08  -0.14     0.02   0.00   0.01
   4   1     0.04   0.09   0.26     0.04   0.05   0.18    -0.00  -0.00  -0.02
   5   6    -0.32  -0.11   0.20    -0.09  -0.03   0.06     0.11   0.04  -0.07
   6   1    -0.07   0.03  -0.24    -0.02  -0.33  -0.25     0.03  -0.13   0.00
   7   1     0.19   0.01   0.17     0.04   0.34   0.24    -0.05   0.13   0.02
   8   6     0.25   0.09  -0.15    -0.19  -0.07   0.12     0.05   0.01  -0.03
   9   1     0.05  -0.17   0.11    -0.04  -0.10  -0.20     0.01   0.35   0.23
  10   1    -0.15   0.13  -0.05     0.10   0.12   0.17    -0.02  -0.34  -0.22
  11   6    -0.10  -0.03   0.06     0.21   0.08  -0.13    -0.01  -0.00  -0.00
  12   1    -0.02  -0.20  -0.19     0.05   0.02   0.17     0.00  -0.39  -0.21
  13   1     0.05   0.21   0.17    -0.11  -0.04  -0.13    -0.01   0.40   0.22
  14   6    -0.09  -0.03   0.06    -0.01  -0.00   0.01    -0.11  -0.04   0.07
  15   1    -0.02  -0.14  -0.18     0.00   0.28   0.18    -0.02   0.28   0.11
  16   1     0.07   0.15   0.15    -0.01  -0.28  -0.18     0.04  -0.28  -0.12
  17   8     0.05   0.02  -0.03    -0.05  -0.02   0.03    -0.03  -0.01   0.01
  18   1     0.01   0.00   0.00    -0.01  -0.00   0.01    -0.01  -0.00   0.02
                     25                     26                     27
                        a                      a                      a 
 Frequencies --  1271.0279              1290.0113              1327.7151
 Red. masses --     3.8324                 2.1215                 4.2227
 Frc consts  --     0.0000                 0.0000                 0.0000
 IR Inten    --     0.3458                 0.0178                 0.2152
 Raman Activ --     0.0000                 0.0000                 0.0000
 Depolar     --     0.0000                 0.0000                 0.0000
 Atom AN      X      Y      Z        X      Y      Z        X      Y      Z
   1   6    -0.07   0.09  -0.06    -0.07  -0.03   0.05    -0.07   0.09  -0.06
   2   1     0.06   0.05   0.12     0.01   0.00  -0.00     0.07   0.05   0.14
   3   1     0.02  -0.05  -0.03     0.03   0.03   0.06     0.05  -0.01   0.00
   4   1    -0.01  -0.06  -0.01    -0.02  -0.03  -0.07    -0.01  -0.03   0.04
   5   6     0.07  -0.20   0.01    -0.10  -0.03   0.06     0.02  -0.29  -0.14
   6   1     0.02   0.18   0.12    -0.02   0.37   0.14     0.00   0.32   0.19
   7   1     0.01   0.17   0.12     0.05  -0.36  -0.16     0.00   0.32   0.19
   8   6    -0.01  -0.17  -0.10     0.13   0.05  -0.08     0.05  -0.15  -0.01
   9   1    -0.00   0.32   0.18     0.03  -0.34  -0.11     0.01   0.14   0.06
  10   1    -0.00   0.34   0.19    -0.06   0.33   0.12    -0.02   0.13   0.08
  11   6    -0.09  -0.11  -0.22     0.16   0.06  -0.10    -0.02   0.28   0.14
  12   1    -0.03   0.29   0.14     0.04  -0.21  -0.00     0.00  -0.31  -0.17
  13   1    -0.01   0.28   0.12    -0.08   0.19   0.03     0.01  -0.30  -0.17
  14   6     0.13  -0.12   0.14    -0.07  -0.03   0.05    -0.07   0.13  -0.04
  15   1     0.03  -0.06   0.00    -0.01   0.30   0.15    -0.02  -0.15  -0.10
  16   1     0.02  -0.05   0.01     0.02  -0.30  -0.16    -0.00  -0.15  -0.11
  17   8    -0.10   0.07  -0.12    -0.04  -0.01   0.02     0.08  -0.05   0.10
  18   1     0.18   0.07   0.33    -0.01  -0.00   0.01    -0.09  -0.04  -0.18
                     28                     29                     30
                        a                      a                      a 
 Frequencies --  1372.3138              1383.5600              1416.1252
 Red. masses --     5.0679                 5.0339                 3.1818
 Frc consts  --     0.0000                 0.0000                 0.0000
 IR Inten    --     0.1163                 0.2462                 0.0503
 Raman Activ --     0.0000                 0.0000                 0.0000
 Depolar     --     0.0000                 0.0000                 0.0000
 Atom AN      X      Y      Z        X      Y      Z        X      Y      Z
   1   6    -0.03   0.06  -0.02     0.00   0.02   0.02     0.13   0.24   0.34
   2   1     0.04   0.03   0.09    -0.01  -0.00  -0.01    -0.24  -0.07  -0.44
   3   1     0.06   0.00   0.02    -0.00  -0.02  -0.01    -0.21  -0.38  -0.27
   4   1    -0.01  -0.02   0.05     0.00  -0.02  -0.01     0.03  -0.29  -0.42
   5   6    -0.02  -0.31  -0.22    -0.00  -0.06  -0.04     0.00  -0.08  -0.04
   6   1    -0.01   0.28   0.19    -0.00   0.03   0.03    -0.00   0.10  -0.00
   7   1     0.02   0.29   0.17     0.01   0.03   0.02    -0.05   0.08   0.03
   8   6     0.01   0.34   0.22    -0.01   0.17   0.08     0.01  -0.01   0.02
   9   1     0.01  -0.32  -0.19    -0.00  -0.12  -0.06     0.00   0.00   0.01
  10   1    -0.01  -0.32  -0.18     0.01  -0.11  -0.06     0.01   0.00   0.01
  11   6     0.02  -0.13  -0.03    -0.01  -0.28  -0.18    -0.01   0.03   0.01
  12   1     0.01   0.09   0.02    -0.01   0.20   0.14    -0.00  -0.02  -0.02
  13   1    -0.03   0.08   0.04     0.02   0.21   0.12    -0.00  -0.02  -0.02
  14   6     0.03  -0.15  -0.04    -0.05   0.40   0.15     0.00  -0.02  -0.01
  15   1     0.01   0.18   0.12    -0.02  -0.39  -0.26     0.00   0.01   0.01
  16   1     0.00   0.18   0.12    -0.02  -0.39  -0.25     0.00   0.01   0.01
  17   8    -0.05   0.03  -0.06     0.09  -0.06   0.11    -0.00   0.00  -0.00
  18   1     0.06   0.03   0.11    -0.11  -0.05  -0.21     0.00   0.00   0.01
                     31                     32                     33
                        a                      a                      a 
 Frequencies --  1492.8303              1494.4776              1498.2398
 Red. masses --     1.9336                 1.8383                 1.9845
 Frc consts  --     0.0000                 0.0000                 0.0000
 IR Inten    --     0.0577                 0.0939                 0.0798
 Raman Activ --     0.0000                 0.0000                 0.0000
 Depolar     --     0.0000                 0.0000                 0.0000
 Atom AN      X      Y      Z        X      Y      Z        X      Y      Z
   1   6     0.01  -0.01   0.02    -0.01   0.00  -0.01    -0.03   0.03  -0.03
   2   1     0.01   0.01   0.03     0.00  -0.00  -0.00    -0.04  -0.01  -0.06
   3   1    -0.08   0.02  -0.02     0.04  -0.00   0.02     0.16  -0.04   0.04
   4   1     0.00   0.05  -0.07    -0.00  -0.02   0.04    -0.00  -0.10   0.14
   5   6    -0.06   0.04  -0.07     0.06  -0.06   0.07     0.09  -0.03   0.13
   6   1    -0.01  -0.11   0.20     0.01   0.14  -0.23     0.01   0.17  -0.33
   7   1     0.22  -0.03   0.07    -0.26   0.05  -0.07    -0.35   0.04  -0.11
   8   6    -0.04  -0.00  -0.07    -0.06   0.06  -0.06     0.12  -0.08   0.15
   9   1    -0.00  -0.07   0.16    -0.01  -0.14   0.20     0.01   0.22  -0.39
  10   1     0.16  -0.01   0.06     0.23  -0.05   0.06    -0.43   0.06  -0.12
  11   6     0.12  -0.07   0.16    -0.07   0.07  -0.07     0.07  -0.06   0.07
  12   1     0.02   0.24  -0.44    -0.01  -0.16   0.24     0.01   0.13  -0.21
  13   1    -0.47   0.06  -0.14     0.28  -0.06   0.07    -0.23   0.04  -0.06
  14   6     0.08  -0.05   0.11     0.11  -0.11   0.11     0.04  -0.02   0.05
  15   1     0.00   0.15  -0.31     0.00   0.25  -0.42     0.00   0.07  -0.14
  16   1    -0.33   0.03  -0.11    -0.46   0.09  -0.14    -0.15   0.02  -0.05
  17   8     0.01  -0.00   0.02     0.01   0.01   0.03     0.01   0.00   0.01
  18   1    -0.00  -0.00  -0.01     0.00   0.00   0.01    -0.00  -0.00  -0.00
                     34                     35                     36
                        a                      a                      a 
 Frequencies --  1500.9264              1504.6019              1507.5798
 Red. masses --     1.7825                 1.5320                 1.6444
 Frc consts  --     0.0000                 0.0000                 0.0000
 IR Inten    --     0.0500                 0.0281                 0.0242
 Raman Activ --     0.0000                 0.0000                 0.0000
 Depolar     --     0.0000                 0.0000                 0.0000
 Atom AN      X      Y      Z        X      Y      Z        X      Y      Z
   1   6     0.00   0.01   0.01     0.17   0.06  -0.11     0.10  -0.17   0.07
   2   1    -0.02  -0.00  -0.02    -0.58  -0.21   0.36     0.15   0.04   0.28
   3   1    -0.01  -0.02  -0.01    -0.15   0.42   0.15    -0.57   0.21  -0.10
   4   1    -0.00  -0.02  -0.02     0.02  -0.46  -0.07     0.01   0.42  -0.46
   5   6    -0.10   0.08  -0.11     0.04   0.01  -0.02     0.06  -0.08   0.05
   6   1    -0.01  -0.22   0.35     0.01   0.01   0.02     0.01   0.09  -0.10
   7   1     0.40  -0.08   0.11    -0.01  -0.01  -0.02    -0.13   0.04  -0.01
   8   6     0.09  -0.07   0.10    -0.00  -0.00   0.00     0.03   0.00   0.05
   9   1     0.01   0.19  -0.33     0.00   0.02   0.01     0.00   0.06  -0.12
  10   1    -0.37   0.06  -0.10     0.00  -0.02  -0.01    -0.13   0.01  -0.04
  11   6    -0.05   0.03  -0.07    -0.00  -0.00   0.00    -0.00  -0.01  -0.01
  12   1    -0.00  -0.12   0.22    -0.00  -0.00  -0.00     0.00  -0.01   0.02
  13   1     0.24  -0.04   0.07     0.00   0.00   0.00     0.02   0.00   0.01
  14   6     0.06  -0.06   0.06    -0.00   0.00  -0.00     0.01  -0.01   0.01
  15   1    -0.00   0.14  -0.23     0.00  -0.00   0.00    -0.00   0.02  -0.02
  16   1    -0.26   0.05  -0.08     0.00  -0.00   0.00    -0.03   0.01  -0.01
  17   8     0.01   0.01   0.02    -0.00  -0.00  -0.00     0.00   0.00   0.00
  18   1     0.00   0.00   0.00     0.00   0.00  -0.00    -0.00  -0.00  -0.00
                     37                     38                     39
                        a                      a                      a 
 Frequencies --  2849.3202              2882.8384              2957.5611
 Red. masses --     1.9746                 1.4188                 1.9277
 Frc consts  --     0.0000                 0.0000                 0.0000
 IR Inten    --     0.3891                 0.3143                 0.1088
 Raman Activ --     0.0000                 0.0000                 0.0000
 Depolar     --     0.0000                 0.0000                 0.0000
 Atom AN      X      Y      Z        X      Y      Z        X      Y      Z
   1   6     0.00   0.00  -0.00     0.00  -0.00   0.00    -0.00  -0.00   0.00
   2   1     0.00  -0.00  -0.00    -0.00   0.00  -0.00    -0.00  -0.00   0.00
   3   1    -0.00  -0.00   0.00     0.00   0.00  -0.00     0.00   0.01  -0.02
   4   1    -0.00   0.00   0.00    -0.00  -0.00   0.00     0.02   0.00   0.00
   5   6     0.00   0.00  -0.00     0.00  -0.00   0.00     0.09   0.03  -0.06
   6   1    -0.00  -0.00  -0.00    -0.00  -0.00  -0.00    -0.28   0.01  -0.01
   7   1    -0.00  -0.00   0.00     0.00   0.00  -0.00    -0.08  -0.13   0.23
   8   6     0.01   0.00  -0.00     0.00  -0.00   0.01    -0.21  -0.08   0.13
   9   1    -0.01   0.00   0.00    -0.02   0.00   0.00     0.61  -0.01   0.02
  10   1    -0.00  -0.01   0.01     0.01   0.01  -0.02     0.18   0.29  -0.50
  11   6     0.01   0.00  -0.00     0.00   0.00   0.00     0.04   0.01  -0.02
  12   1    -0.04   0.00  -0.00    -0.03  -0.00  -0.00    -0.12   0.00  -0.01
  13   1    -0.01  -0.02   0.03     0.01   0.01  -0.02    -0.03  -0.06   0.10
  14   6    -0.24  -0.09   0.15    -0.11   0.09  -0.13     0.00   0.00  -0.00
  15   1     0.67  -0.02   0.02     0.69   0.01  -0.03     0.00  -0.00   0.00
  16   1     0.20   0.33  -0.55    -0.26  -0.32   0.55    -0.00   0.00  -0.00
  17   8    -0.01  -0.00   0.00    -0.01  -0.01  -0.02     0.00   0.00  -0.00
  18   1     0.00   0.00  -0.00    -0.00  -0.00  -0.00    -0.00  -0.00   0.00
                     40                     41                     42
                        a                      a                      a 
 Frequencies --  2973.4444              2975.0570              2985.0948
 Red. masses --     1.9989                 1.4548                 1.4949
 Frc consts  --     0.0000                 0.0000                 0.0000
 IR Inten    --     0.2547                 0.1394                 0.2034
 Raman Activ --     0.0000                 0.0000                 0.0000
 Depolar     --     0.0000                 0.0000                 0.0000
 Atom AN      X      Y      Z        X      Y      Z        X      Y      Z
   1   6     0.03   0.01  -0.02    -0.00   0.01  -0.01    -0.02   0.03  -0.01
   2   1     0.01   0.00  -0.00     0.00  -0.01  -0.00     0.02  -0.06  -0.00
   3   1    -0.03  -0.04   0.07    -0.01  -0.01   0.01    -0.03  -0.03   0.06
   4   1    -0.09   0.00  -0.01     0.02  -0.00  -0.00     0.07   0.01  -0.00
   5   6    -0.22  -0.08   0.13    -0.03   0.02  -0.04     0.11  -0.08   0.14
   6   1     0.60  -0.01   0.02     0.20   0.00  -0.01    -0.64  -0.01   0.02
   7   1     0.18   0.28  -0.49    -0.07  -0.09   0.16     0.24   0.30  -0.52
   8   6    -0.09  -0.03   0.05     0.11  -0.08   0.14     0.03  -0.02   0.04
   9   1     0.24  -0.00   0.01    -0.65  -0.01   0.02    -0.17  -0.00   0.01
  10   1     0.07   0.11  -0.19     0.24   0.31  -0.53     0.06   0.08  -0.14
  11   6     0.07   0.02  -0.04    -0.01   0.01  -0.01    -0.03   0.02  -0.04
  12   1    -0.19   0.00  -0.01     0.08   0.00  -0.00     0.17   0.00  -0.00
  13   1    -0.05  -0.09   0.15    -0.03  -0.04   0.07    -0.06  -0.08   0.15
  14   6     0.00   0.00  -0.00     0.00  -0.00   0.00    -0.00   0.00  -0.00
  15   1    -0.00  -0.00  -0.00    -0.02   0.00   0.00    -0.00   0.00   0.00
  16   1    -0.00  -0.00   0.00     0.01   0.01  -0.02    -0.00   0.00   0.00
  17   8     0.00   0.00  -0.00     0.00  -0.00   0.00     0.00  -0.00  -0.00
  18   1    -0.00  -0.00   0.00    -0.00   0.00   0.00    -0.00   0.00   0.00
                     43                     44                     45
                        a                      a                      a 
 Frequencies --  2989.5279              3000.6387              3030.2639
 Red. masses --     2.0156                 1.5018                 1.9599
 Frc consts  --     0.0000                 0.0000                 0.0000
 IR Inten    --     0.3624                 0.2821                 0.2923
 Raman Activ --     0.0000                 0.0000                 0.0000
 Depolar     --     0.0000                 0.0000                 0.0000
 Atom AN      X      Y      Z        X      Y      Z        X      Y      Z
   1   6     0.01   0.00  -0.01    -0.01   0.01  -0.01     0.24   0.08  -0.14
   2   1     0.00   0.00  -0.00     0.01  -0.03  -0.00     0.03   0.02  -0.02
   3   1    -0.01  -0.02   0.03    -0.01  -0.02   0.03    -0.20  -0.31   0.55
   4   1    -0.04   0.00  -0.00     0.04   0.00  -0.00    -0.67   0.01  -0.03
   5   6    -0.04  -0.02   0.03     0.02  -0.02   0.03     0.04   0.01  -0.02
   6   1     0.12  -0.00   0.00    -0.14  -0.00   0.01    -0.09   0.00  -0.00
   7   1     0.04   0.06  -0.10     0.05   0.07  -0.12    -0.03  -0.04   0.07
   8   6    -0.07  -0.03   0.04     0.02  -0.02   0.03     0.01   0.00  -0.01
   9   1     0.18  -0.00   0.00    -0.12  -0.00   0.00    -0.03   0.00  -0.00
  10   1     0.06   0.09  -0.15     0.05   0.06  -0.10    -0.01  -0.01   0.02
  11   6    -0.23  -0.08   0.14     0.11  -0.08   0.15     0.00   0.00  -0.00
  12   1     0.64  -0.00   0.03    -0.66  -0.02   0.01    -0.01  -0.00  -0.00
  13   1     0.19   0.29  -0.53     0.24   0.30  -0.54    -0.00  -0.01   0.01
  14   6    -0.02  -0.01   0.01     0.01  -0.01   0.01     0.00   0.00  -0.00
  15   1     0.04   0.00  -0.00    -0.03  -0.00   0.00    -0.00   0.00   0.00
  16   1     0.01   0.02  -0.03     0.01   0.01  -0.02    -0.00  -0.00   0.00
  17   8     0.00   0.00  -0.00    -0.00   0.00  -0.00    -0.00  -0.00   0.00
  18   1    -0.00  -0.00   0.00     0.00  -0.01  -0.00     0.00   0.00  -0.00
                     46                     47                     48
                        a                      a                      a 
 Frequencies --  3033.2963              3038.8194              3564.4397
 Red. masses --     1.8392                 1.3534                 1.8755
 Frc consts  --     0.0000                 0.0000                 0.0000
 IR Inten    --     0.2712                 0.1825                 0.1442
 Raman Activ --     0.0000                 0.0000                 0.0000
 Depolar     --     0.0000                 0.0000                 0.0000
 Atom AN      X      Y      Z        X      Y      Z        X      Y      Z
   1   6    -0.14   0.19  -0.13    -0.01   0.16   0.07     0.00  -0.00  -0.00
   2   1     0.16  -0.46  -0.01     0.29  -0.78   0.02    -0.00  -0.00  -0.00
   3   1    -0.22  -0.25   0.48     0.12   0.19  -0.30    -0.00  -0.00   0.00
   4   1     0.57   0.04  -0.01    -0.37   0.02   0.00     0.00   0.00  -0.00
   5   6    -0.02   0.02  -0.02    -0.00   0.01   0.00    -0.00  -0.00  -0.00
   6   1     0.08   0.00  -0.00     0.01   0.00   0.00    -0.00   0.00   0.00
   7   1    -0.03  -0.04   0.07    -0.00  -0.00   0.01     0.00   0.00  -0.00
   8   6    -0.01   0.01  -0.01     0.00  -0.00   0.00     0.00  -0.00   0.00
   9   1     0.05  -0.00  -0.00    -0.00  -0.00   0.00     0.00  -0.00  -0.00
  10   1    -0.02  -0.02   0.04     0.00   0.00  -0.00    -0.00  -0.00   0.00
  11   6    -0.00   0.00  -0.00    -0.00   0.00  -0.00    -0.00  -0.00  -0.00
  12   1     0.02   0.00  -0.00     0.00  -0.00  -0.00    -0.01   0.00   0.00
  13   1    -0.01  -0.01   0.02    -0.00  -0.00   0.00     0.00   0.00  -0.00
  14   6    -0.00   0.00  -0.00     0.00  -0.00  -0.00     0.00  -0.00  -0.00
  15   1     0.00  -0.00  -0.00    -0.00  -0.00  -0.00    -0.00   0.00  -0.00
  16   1    -0.00  -0.00   0.00     0.00   0.00  -0.00    -0.00   0.00  -0.00
  17   8     0.00  -0.00   0.00     0.00   0.00   0.00     0.08  -0.23  -0.01
  18   1    -0.00   0.00  -0.00    -0.00   0.00  -0.00    -0.31   0.92   0.03
