 Entering Gaussian System
 *********************************************
 Gaussian 98:
 frequency output generated by the xtb code
 *********************************************
                         Standard orientation:
 --------------------------------------------------------------------
  Center     Atomic     Atomic              Coordinates (Angstroms)
  Number     Number      Type              X           Y           Z
 --------------------------------------------------------------------
    1          6             0       -2.476856   -0.339707   -0.066988
    2          1             0       -2.113496   -1.364629   -0.063830
    3          1             0       -2.122159    0.147360   -0.972799
    4          1             0       -3.564206   -0.361167   -0.094452
    5          6             0       -1.987990    0.407202    1.168027
    6          1             0       -0.896100    0.401646    1.187413
    7          1             0       -2.337039   -0.107502    2.065736
    8          6             0       -2.483996    1.851093    1.191294
    9          1             0       -3.576662    1.857189    1.172852
   10          1             0       -2.136283    2.366171    0.292361
   11          6             0       -1.994450    2.601173    2.425683
   12          1             0       -0.903660    2.610799    2.451802
   13          1             0       -2.342092    2.101956    3.331510
   14          6             0       -2.488411    4.043535    2.452217
   15          1             0       -3.588643    4.059633    2.445848
   16          1             0       -2.134095    4.574126    1.555700
   17          8             0       -1.993399    4.664176    3.619812
   18          1             0       -2.298956    5.576306    3.647567
 --------------------------------------------------------------------
     1 basis functions        1 primitive gaussians
     1 alpha electrons        1 beta electrons
 
 Harmonic frequencies (cm**-1), IR intensities (KM/Mole),
 Raman scattering activities (A**4/amu), Raman depolarization ratios,
 reduced masses (AMU), force constants (mDyne/A) and normal coordinates:
                      1                      2                      3
                        a                      a                      a 
 Frequencies --    66.7460                96.6153               130.8094
 Red. masses --    99.0000                99.0000                99.0000
 Frc consts  --    99.0000                99.0000                99.0000
 IR Inten    --    99.0000                99.0000                99.0000
 Raman Activ --     0.0000                 0.0000                 0.0000
 Depolar     --     0.0000                 0.0000                 0.0000
 Atom AN      X      Y      Z        X      Y      Z        X      Y      Z
   1   6     0.35   0.12  -0.21     0.03   0.01  -0.02    -0.19  -0.07   0.11
   2   1     0.11   0.04  -0.07     0.15   0.05  -0.09    -0.05  -0.02   0.03
   3   1     0.20   0.08  -0.00    -0.18   0.09  -0.03    -0.15  -0.05  -0.02
   4   1     0.10   0.03  -0.18     0.01  -0.15   0.14    -0.06  -0.02   0.14
   5   6    -0.14  -0.05   0.08     0.23   0.08  -0.14     0.21   0.08  -0.13
   6   1    -0.04   0.01   0.13     0.07   0.14  -0.16     0.06  -0.01  -0.11
   7   1    -0.12  -0.06  -0.03     0.22  -0.03  -0.01     0.10   0.07   0.01
   8   6    -0.24  -0.08   0.15    -0.26  -0.09   0.16     0.35   0.12  -0.21
   9   1    -0.07  -0.04   0.04    -0.08  -0.13   0.09     0.10   0.07  -0.24
  10   1    -0.08  -0.01   0.05    -0.16   0.04   0.05     0.26   0.06   0.02
  11   6    -0.25  -0.09   0.15    -0.31  -0.11   0.19    -0.31  -0.11   0.19
  12   1    -0.07  -0.03   0.04    -0.09  -0.16   0.14    -0.09  -0.04   0.23
  13   1    -0.07  -0.02   0.05    -0.21   0.05   0.05    -0.24  -0.08  -0.03
  14   6    -0.19  -0.07   0.12     0.28   0.10  -0.17    -0.23  -0.08   0.14
  15   1    -0.05  -0.00   0.18     0.08   0.16  -0.20    -0.07  -0.00   0.13
  16   1    -0.16  -0.07  -0.04     0.27  -0.04  -0.01    -0.13  -0.07  -0.01
  17   8     0.44   0.16  -0.27    -0.03  -0.01   0.01     0.20   0.07  -0.12
  18   1     0.12   0.04  -0.07     0.12   0.04  -0.07     0.05   0.02  -0.03
                      4                      5                      6
                        a                      a                      a 
 Frequencies --   290.5810               233.4285               137.2384
 Red. masses --    99.0000                99.0000                99.0000
 Frc consts  --    99.0000                99.0000                99.0000
 IR Inten    --    99.0000                99.0000                99.0000
 Raman Activ --     0.0000                 0.0000                 0.0000
 Depolar     --     0.0000                 0.0000                 0.0000
 Atom AN      X      Y      Z        X      Y      Z        X      Y      Z
   1   6     0.00  -0.00  -0.00    -0.04  -0.01   0.02    -0.23   0.29  -0.20
   2   1     0.02   0.00  -0.01    -0.46  -0.16   0.28    -0.13   0.06  -0.17
   3   1    -0.01   0.01   0.00     0.37  -0.34  -0.02    -0.07   0.15  -0.02
   4   1     0.00  -0.02   0.01    -0.02   0.46  -0.19    -0.07   0.15  -0.03
   5   6    -0.01  -0.00   0.00     0.22   0.08  -0.13     0.05  -0.18  -0.02
   6   1    -0.00  -0.01   0.01     0.06   0.07  -0.13     0.01  -0.10  -0.04
   7   1    -0.01   0.01   0.00     0.16   0.01  -0.01     0.01  -0.10  -0.04
   8   6     0.03   0.01  -0.02    -0.11  -0.04   0.06     0.22  -0.14   0.28
   9   1     0.01   0.01   0.00    -0.03  -0.09   0.09     0.06  -0.02   0.09
  10   1     0.01  -0.00  -0.01    -0.12   0.04   0.01     0.06  -0.02   0.09
  11   6     0.07   0.02  -0.04    -0.07  -0.02   0.04     0.22  -0.13   0.28
  12   1     0.02   0.05  -0.05    -0.02  -0.02   0.01     0.06  -0.02   0.09
  13   1     0.07  -0.01  -0.01    -0.03   0.00   0.02     0.06  -0.02   0.09
  14   6    -0.09  -0.03   0.06     0.00   0.00  -0.00     0.04  -0.18  -0.04
  15   1    -0.03  -0.02   0.02     0.00   0.02  -0.01     0.01  -0.11  -0.05
  16   1    -0.04  -0.00   0.02     0.02  -0.01  -0.00     0.01  -0.11  -0.05
  17   8    -0.20  -0.07   0.12    -0.01  -0.00   0.00    -0.25   0.32  -0.22
  18   1     0.78   0.27  -0.48     0.04   0.02  -0.03    -0.11   0.07  -0.15
                      7                      8                      9
                        a                      a                      a 
 Frequencies --   310.5418               365.4303               478.4530
 Red. masses --    99.0000                99.0000                99.0000
 Frc consts  --    99.0000                99.0000                99.0000
 IR Inten    --    99.0000                99.0000                99.0000
 Raman Activ --     0.0000                 0.0000                 0.0000
 Depolar     --     0.0000                 0.0000                 0.0000
 Atom AN      X      Y      Z        X      Y      Z        X      Y      Z
   1   6     0.07  -0.42  -0.13     0.07   0.20   0.23     0.01   0.23   0.14
   2   1     0.10  -0.09   0.11     0.05   0.07   0.12    -0.07   0.04  -0.09
   3   1     0.03  -0.21  -0.08     0.02   0.03   0.05    -0.01   0.15   0.08
   4   1     0.02  -0.21  -0.08     0.02   0.03   0.05    -0.00   0.15   0.08
   5   6    -0.20   0.07  -0.29    -0.09   0.41   0.09     0.15  -0.08   0.19
   6   1    -0.06   0.03  -0.07    -0.03   0.15   0.05     0.04   0.01   0.06
   7   1    -0.05   0.04  -0.07    -0.02   0.16   0.05     0.03   0.00   0.07
   8   6    -0.09   0.14  -0.07    -0.14   0.29  -0.05    -0.15  -0.19  -0.35
   9   1    -0.03   0.08   0.01    -0.04   0.12   0.01    -0.04  -0.11  -0.13
  10   1    -0.03   0.08   0.01    -0.03   0.12   0.01    -0.04  -0.11  -0.13
  11   6     0.13  -0.14   0.13     0.14  -0.28   0.07    -0.12  -0.23  -0.32
  12   1     0.04  -0.08   0.01     0.04  -0.11  -0.01    -0.03  -0.15  -0.13
  13   1     0.03  -0.08   0.01     0.03  -0.11  -0.00    -0.03  -0.15  -0.13
  14   6     0.18  -0.08   0.24     0.09  -0.40  -0.09     0.16  -0.11   0.21
  15   1     0.05  -0.06   0.05     0.02  -0.15  -0.05     0.05  -0.02   0.06
  16   1     0.05  -0.06   0.05     0.02  -0.16  -0.05     0.04  -0.03   0.06
  17   8    -0.09   0.49   0.14    -0.07  -0.21  -0.25    -0.02   0.37   0.19
  18   1    -0.10   0.10  -0.09    -0.05  -0.06  -0.11    -0.07   0.07  -0.08
                     10                     11                     12
                        a                      a                      a 
 Frequencies --   772.6706               880.3615              1162.7012
 Red. masses --    99.0000                99.0000                99.0000
 Frc consts  --    99.0000                99.0000                99.0000
 IR Inten    --    99.0000                99.0000                99.0000
 Raman Activ --     0.0000                 0.0000                 0.0000
 Depolar     --     0.0000                 0.0000                 0.0000
 Atom AN      X      Y      Z        X      Y      Z        X      Y      Z
   1   6     0.01   0.00  -0.01     0.10   0.04  -0.06    -0.06  -0.02   0.04
   2   1    -0.03  -0.01   0.02    -0.10  -0.04   0.06     0.03   0.01  -0.02
   3   1    -0.10  -0.06  -0.07    -0.18  -0.16  -0.18     0.05   0.04   0.06
   4   1    -0.00   0.02   0.14     0.01   0.10   0.29    -0.01  -0.03  -0.08
   5   6     0.11   0.04  -0.06     0.10   0.03  -0.06     0.12   0.04  -0.07
   6   1     0.02  -0.22   0.28     0.02   0.10   0.22     0.03  -0.09   0.05
   7   1    -0.32   0.11  -0.09    -0.12  -0.14  -0.16    -0.08   0.08  -0.02
   8   6     0.14   0.05  -0.08    -0.21  -0.07   0.13    -0.17  -0.06   0.10
   9   1     0.02  -0.22   0.38    -0.05   0.10  -0.26    -0.04  -0.04  -0.18
  10   1    -0.41   0.09  -0.15     0.25  -0.03   0.14     0.11   0.07   0.13
  11   6     0.10   0.03  -0.06     0.03   0.01  -0.02     0.25   0.09  -0.15
  12   1     0.01  -0.11   0.32     0.01  -0.26  -0.07     0.06  -0.24   0.09
  13   1    -0.31   0.00  -0.14    -0.06   0.24   0.10    -0.17   0.20  -0.02
  14   6     0.02   0.01  -0.01     0.18   0.06  -0.11    -0.34  -0.12   0.21
  15   1     0.00  -0.11   0.07     0.03  -0.27   0.19    -0.08  -0.08  -0.42
  16   1    -0.11   0.07  -0.00    -0.27   0.19  -0.04     0.28   0.15   0.30
  17   8    -0.01  -0.00   0.01    -0.06  -0.02   0.03     0.13   0.05  -0.08
  18   1     0.01   0.00  -0.01     0.01   0.00  -0.01     0.01   0.00  -0.01
                     13                     14                     15
                        a                      a                      a 
 Frequencies --   803.7272               977.3592              1212.7361
 Red. masses --    99.0000                99.0000                99.0000
 Frc consts  --    99.0000                99.0000                99.0000
 IR Inten    --    99.0000                99.0000                99.0000
 Raman Activ --     0.0000                 0.0000                 0.0000
 Depolar     --     0.0000                 0.0000                 0.0000
 Atom AN      X      Y      Z        X      Y      Z        X      Y      Z
   1   6    -0.04  -0.01   0.03    -0.13  -0.05   0.08     0.24   0.08  -0.14
   2   1     0.08   0.03  -0.05     0.09   0.03  -0.06    -0.10  -0.04   0.06
   3   1     0.16   0.12   0.14     0.16   0.14   0.18    -0.16  -0.13  -0.19
   4   1    -0.00  -0.06  -0.24    -0.02  -0.10  -0.26     0.04   0.09   0.26
   5   6    -0.17  -0.06   0.10     0.10   0.03  -0.06    -0.32  -0.11   0.20
   6   1    -0.03   0.15  -0.32     0.02  -0.32  -0.06    -0.07   0.03  -0.24
   7   1     0.32  -0.04   0.15    -0.09   0.29   0.10     0.19   0.01   0.17
   8   6    -0.01  -0.00   0.00     0.05   0.02  -0.03     0.25   0.09  -0.15
   9   1    -0.00   0.14   0.07     0.01  -0.32  -0.13     0.05  -0.17   0.11
  10   1     0.01  -0.13  -0.07    -0.04   0.31   0.15    -0.15   0.13  -0.05
  11   6     0.17   0.06  -0.10    -0.14  -0.05   0.09    -0.10  -0.03   0.06
  12   1     0.04  -0.23   0.30    -0.03  -0.17  -0.25    -0.02  -0.20  -0.19
  13   1    -0.34   0.12  -0.12     0.12   0.20   0.20     0.05   0.21   0.17
  14   6     0.09   0.03  -0.06     0.15   0.05  -0.09    -0.09  -0.03   0.06
  15   1     0.02  -0.25   0.16     0.03  -0.16   0.13    -0.02  -0.14  -0.18
  16   1    -0.24   0.17  -0.02    -0.17   0.11  -0.04     0.07   0.15   0.15
  17   8    -0.04  -0.02   0.03    -0.04  -0.01   0.02     0.05   0.02  -0.03
  18   1     0.02   0.01  -0.01     0.00   0.00  -0.00     0.01   0.00   0.00
                     16                     17                     18
                        a                      a                      a 
 Frequencies --  1492.8303              1498.2398              1494.4776
 Red. masses --    99.0000                99.0000                99.0000
 Frc consts  --    99.0000                99.0000                99.0000
 IR Inten    --    99.0000                99.0000                99.0000
 Raman Activ --     0.0000                 0.0000                 0.0000
 Depolar     --     0.0000                 0.0000                 0.0000
 Atom AN      X      Y      Z        X      Y      Z        X      Y      Z
   1   6     0.01  -0.01   0.02    -0.03   0.03  -0.03    -0.01   0.00  -0.01
   2   1     0.01   0.01   0.03    -0.04  -0.01  -0.06     0.00  -0.00  -0.00
   3   1    -0.08   0.02  -0.02     0.16  -0.04   0.04     0.04  -0.00   0.02
   4   1     0.00   0.05  -0.07    -0.00  -0.10   0.14    -0.00  -0.02   0.04
   5   6    -0.06   0.04  -0.07     0.09  -0.03   0.13     0.06  -0.06   0.07
   6   1    -0.01  -0.11   0.20     0.01   0.17  -0.33     0.01   0.14  -0.23
   7   1     0.22  -0.03   0.07    -0.35   0.04  -0.11    -0.26   0.05  -0.07
   8   6    -0.04  -0.00  -0.07     0.12  -0.08   0.15    -0.06   0.06  -0.06
   9   1    -0.00  -0.07   0.16     0.01   0.22  -0.39    -0.01  -0.14   0.20
  10   1     0.16  -0.01   0.06    -0.43   0.06  -0.12     0.23  -0.05   0.06
  11   6     0.12  -0.07   0.16     0.07  -0.06   0.07    -0.07   0.07  -0.07
  12   1     0.02   0.24  -0.44     0.01   0.13  -0.21    -0.01  -0.16   0.24
  13   1    -0.47   0.06  -0.14    -0.23   0.04  -0.06     0.28  -0.06   0.07
  14   6     0.08  -0.05   0.11     0.04  -0.02   0.05     0.11  -0.11   0.11
  15   1     0.00   0.15  -0.31     0.00   0.07  -0.14     0.00   0.25  -0.42
  16   1    -0.33   0.03  -0.11    -0.15   0.02  -0.05    -0.46   0.09  -0.14
  17   8     0.01  -0.00   0.02     0.01   0.00   0.01     0.01   0.01   0.03
  18   1    -0.00  -0.00  -0.01    -0.00  -0.00  -0.00     0.00   0.00   0.01
                     19                     20                     21
                        a                      a                      a 
 Frequencies --   941.4334              1500.9264              1017.5694
 Red. masses --    99.0000                99.0000                99.0000
 Frc consts  --    99.0000                99.0000                99.0000
 IR Inten    --    99.0000                99.0000                99.0000
 Raman Activ --     0.0000                 0.0000                 0.0000
 Depolar     --     0.0000                 0.0000                 0.0000
 Atom AN      X      Y      Z        X      Y      Z        X      Y      Z
   1   6    -0.06   0.36   0.12     0.00   0.01   0.01    -0.09  -0.02  -0.15
   2   1     0.24   0.18   0.50    -0.02  -0.00  -0.02     0.04   0.01   0.07
   3   1     0.03  -0.20  -0.10    -0.01  -0.02  -0.01    -0.01  -0.09  -0.08
   4   1    -0.00  -0.21  -0.08    -0.00  -0.02  -0.02    -0.02  -0.09  -0.07
   5   6    -0.16   0.19  -0.16    -0.10   0.08  -0.11     0.09   0.01   0.15
   6   1    -0.04  -0.07  -0.11    -0.01  -0.22   0.35     0.02  -0.06   0.01
   7   1    -0.04  -0.07  -0.11     0.40  -0.08   0.11     0.03  -0.06   0.00
   8   6     0.20  -0.35   0.13     0.09  -0.07   0.10     0.06   0.14   0.18
   9   1     0.05  -0.14   0.01     0.01   0.19  -0.33     0.02  -0.04   0.00
  10   1     0.05  -0.14   0.01    -0.37   0.06  -0.10     0.01  -0.04   0.00
  11   6    -0.05  -0.10  -0.14    -0.05   0.03  -0.07    -0.29   0.43  -0.22
  12   1    -0.01  -0.01  -0.02    -0.00  -0.12   0.22    -0.07   0.11  -0.06
  13   1    -0.01  -0.01  -0.02     0.24  -0.04   0.07    -0.07   0.11  -0.06
  14   6    -0.04   0.01  -0.06     0.06  -0.06   0.06     0.28  -0.33   0.26
  15   1    -0.01   0.03   0.00    -0.00   0.14  -0.23     0.07  -0.07   0.06
  16   1    -0.01   0.03   0.00    -0.26   0.05  -0.08     0.06  -0.07   0.06
  17   8     0.03   0.06   0.08     0.01   0.01   0.02    -0.01  -0.11  -0.09
  18   1     0.00   0.01   0.01     0.00   0.00   0.00    -0.20  -0.08  -0.37
                     22                     23                     24
                        a                      a                      a 
 Frequencies --  1076.8075              1263.0320              1416.1252
 Red. masses --    99.0000                99.0000                99.0000
 Frc consts  --    99.0000                99.0000                99.0000
 IR Inten    --    99.0000                99.0000                99.0000
 Raman Activ --     0.0000                 0.0000                 0.0000
 Depolar     --     0.0000                 0.0000                 0.0000
 Atom AN      X      Y      Z        X      Y      Z        X      Y      Z
   1   6    -0.08  -0.15  -0.22     0.18   0.06  -0.11     0.13   0.24   0.34
   2   1    -0.04  -0.05  -0.10    -0.07  -0.02   0.04    -0.24  -0.07  -0.44
   3   1    -0.03  -0.02  -0.05    -0.11  -0.08  -0.14    -0.21  -0.38  -0.27
   4   1    -0.02  -0.02  -0.06     0.04   0.05   0.18     0.03  -0.29  -0.42
   5   6     0.06   0.20   0.22    -0.09  -0.03   0.06     0.00  -0.08  -0.04
   6   1     0.02   0.09   0.09    -0.02  -0.33  -0.25    -0.00   0.10  -0.00
   7   1     0.02   0.09   0.08     0.04   0.34   0.24    -0.05   0.08   0.03
   8   6     0.13   0.08   0.27    -0.19  -0.07   0.12     0.01  -0.01   0.02
   9   1     0.04   0.05   0.09    -0.04  -0.10  -0.20     0.00   0.00   0.01
  10   1     0.04   0.05   0.09     0.10   0.12   0.17     0.01   0.00   0.01
  11   6    -0.10  -0.16  -0.26     0.21   0.08  -0.13    -0.01   0.03   0.01
  12   1    -0.03  -0.00  -0.06     0.05   0.02   0.17    -0.00  -0.02  -0.02
  13   1    -0.04  -0.01  -0.05    -0.11  -0.04  -0.13    -0.00  -0.02  -0.02
  14   6    -0.19  -0.25  -0.45    -0.01  -0.00   0.01     0.00  -0.02  -0.01
  15   1    -0.03  -0.02  -0.06     0.00   0.28   0.18     0.00   0.01   0.01
  16   1    -0.03  -0.01  -0.06    -0.01  -0.28  -0.18     0.00   0.01   0.01
  17   8     0.18   0.20   0.40    -0.05  -0.02   0.03    -0.00   0.00  -0.00
  18   1     0.00   0.04   0.03    -0.01  -0.00   0.01     0.00   0.00   0.01
                     25                     26                     27
                        a                      a                      a 
 Frequencies --  1090.7000              1107.0478              1130.7464
 Red. masses --    99.0000                99.0000                99.0000
 Frc consts  --    99.0000                99.0000                99.0000
 IR Inten    --    99.0000                99.0000                99.0000
 Raman Activ --     0.0000                 0.0000                 0.0000
 Depolar     --     0.0000                 0.0000                 0.0000
 Atom AN      X      Y      Z        X      Y      Z        X      Y      Z
   1   6     0.17   0.04   0.29     0.15   0.04   0.27     0.07  -0.19   0.00
   2   1    -0.04  -0.02  -0.08    -0.02  -0.01  -0.03    -0.11  -0.09  -0.24
   3   1     0.03   0.14   0.14     0.03   0.10   0.12    -0.03   0.14   0.08
   4   1     0.04   0.14   0.13     0.04   0.10   0.12     0.01   0.15   0.06
   5   6    -0.18  -0.09  -0.35    -0.08  -0.26  -0.28    -0.21   0.38  -0.12
   6   1    -0.05   0.02  -0.07    -0.02  -0.16  -0.12    -0.06   0.27   0.07
   7   1    -0.05   0.02  -0.07    -0.01  -0.16  -0.12    -0.05   0.27   0.07
   8   6    -0.04  -0.15  -0.15     0.10   0.28   0.33     0.24  -0.39   0.17
   9   1    -0.01   0.02  -0.02     0.03   0.21   0.16     0.06  -0.06   0.07
  10   1    -0.02   0.01  -0.02     0.02   0.21   0.16     0.06  -0.06   0.07
  11   6    -0.02   0.25   0.11    -0.14  -0.17  -0.33    -0.06  -0.10  -0.15
  12   1    -0.01   0.25   0.13    -0.04  -0.13  -0.14    -0.01   0.02   0.01
  13   1    -0.01   0.25   0.13    -0.04  -0.14  -0.14    -0.00   0.03  -0.00
  14   6    -0.02  -0.34  -0.24     0.00   0.07   0.04     0.08   0.14   0.21
  15   1     0.00  -0.06  -0.02    -0.00   0.07   0.03     0.01   0.11   0.08
  16   1     0.01  -0.06  -0.02    -0.01   0.07   0.03     0.01   0.10   0.08
  17   8     0.14   0.08   0.28    -0.02  -0.00  -0.04    -0.06  -0.08  -0.15
  18   1    -0.10  -0.02  -0.18    -0.02  -0.01  -0.04    -0.07  -0.04  -0.14
                     28                     29                     30
                        a                      a                      a 
 Frequencies --  1211.3413              1270.3975              1507.5798
 Red. masses --    99.0000                99.0000                99.0000
 Frc consts  --    99.0000                99.0000                99.0000
 IR Inten    --    99.0000                99.0000                99.0000
 Raman Activ --     0.0000                 0.0000                 0.0000
 Depolar     --     0.0000                 0.0000                 0.0000
 Atom AN      X      Y      Z        X      Y      Z        X      Y      Z
   1   6    -0.06   0.07  -0.06    -0.02  -0.00   0.01     0.10  -0.17   0.07
   2   1     0.04   0.04   0.09     0.03   0.01  -0.01     0.15   0.04   0.28
   3   1     0.01  -0.07  -0.05     0.02   0.00   0.01    -0.57   0.21  -0.10
   4   1    -0.01  -0.07  -0.03    -0.00  -0.00  -0.02     0.01   0.42  -0.46
   5   6     0.10  -0.12   0.10     0.11   0.04  -0.07     0.06  -0.08   0.05
   6   1     0.02   0.02   0.04     0.03  -0.13   0.00     0.01   0.09  -0.10
   7   1     0.02   0.02   0.05    -0.05   0.13   0.02    -0.13   0.04  -0.01
   8   6    -0.09   0.01  -0.15     0.05   0.01  -0.03     0.03   0.00   0.05
   9   1    -0.02   0.16   0.07     0.01   0.35   0.23     0.00   0.06  -0.12
  10   1    -0.02   0.16   0.06    -0.02  -0.34  -0.22    -0.13   0.01  -0.04
  11   6     0.12  -0.29   0.04    -0.01  -0.00  -0.00    -0.00  -0.01  -0.01
  12   1     0.03   0.11   0.11     0.00  -0.39  -0.21     0.00  -0.01   0.02
  13   1     0.03   0.11   0.11    -0.01   0.40   0.22     0.02   0.00   0.01
  14   6    -0.10   0.14  -0.07    -0.11  -0.04   0.07     0.01  -0.01   0.01
  15   1    -0.02   0.32   0.14    -0.02   0.28   0.11    -0.00   0.02  -0.02
  16   1    -0.03   0.32   0.15     0.04  -0.28  -0.12    -0.03   0.01  -0.01
  17   8     0.08  -0.09   0.07    -0.03  -0.01   0.01     0.00   0.00   0.00
  18   1    -0.29  -0.11  -0.54    -0.01  -0.00   0.02    -0.00  -0.00  -0.00
                     31                     32                     33
                        a                      a                      a 
 Frequencies --  1290.0113              1504.6019              1271.0279
 Red. masses --    99.0000                99.0000                99.0000
 Frc consts  --    99.0000                99.0000                99.0000
 IR Inten    --    99.0000                99.0000                99.0000
 Raman Activ --     0.0000                 0.0000                 0.0000
 Depolar     --     0.0000                 0.0000                 0.0000
 Atom AN      X      Y      Z        X      Y      Z        X      Y      Z
   1   6    -0.07  -0.03   0.05     0.17   0.06  -0.11    -0.07   0.09  -0.06
   2   1     0.01   0.00  -0.00    -0.58  -0.21   0.36     0.06   0.05   0.12
   3   1     0.03   0.03   0.06    -0.15   0.42   0.15     0.02  -0.05  -0.03
   4   1    -0.02  -0.03  -0.07     0.02  -0.46  -0.07    -0.01  -0.06  -0.01
   5   6    -0.10  -0.03   0.06     0.04   0.01  -0.02     0.07  -0.20   0.01
   6   1    -0.02   0.37   0.14     0.01   0.01   0.02     0.02   0.18   0.12
   7   1     0.05  -0.36  -0.16    -0.01  -0.01  -0.02     0.01   0.17   0.12
   8   6     0.13   0.05  -0.08    -0.00  -0.00   0.00    -0.01  -0.17  -0.10
   9   1     0.03  -0.34  -0.11     0.00   0.02   0.01    -0.00   0.32   0.18
  10   1    -0.06   0.33   0.12     0.00  -0.02  -0.01    -0.00   0.34   0.19
  11   6     0.16   0.06  -0.10    -0.00  -0.00   0.00    -0.09  -0.11  -0.22
  12   1     0.04  -0.21  -0.00    -0.00  -0.00  -0.00    -0.03   0.29   0.14
  13   1    -0.08   0.19   0.03     0.00   0.00   0.00    -0.01   0.28   0.12
  14   6    -0.07  -0.03   0.05    -0.00   0.00  -0.00     0.13  -0.12   0.14
  15   1    -0.01   0.30   0.15     0.00  -0.00   0.00     0.03  -0.06   0.00
  16   1     0.02  -0.30  -0.16     0.00  -0.00   0.00     0.02  -0.05   0.01
  17   8    -0.04  -0.01   0.02    -0.00  -0.00  -0.00    -0.10   0.07  -0.12
  18   1    -0.01  -0.00   0.01     0.00   0.00  -0.00     0.18   0.07   0.33
                     34                     35                     36
                        a                      a                      a 
 Frequencies --  1327.7151              1372.3138              1383.5600
 Red. masses --    99.0000                99.0000                99.0000
 Frc consts  --    99.0000                99.0000                99.0000
 IR Inten    --    99.0000                99.0000                99.0000
 Raman Activ --     0.0000                 0.0000                 0.0000
 Depolar     --     0.0000                 0.0000                 0.0000
 Atom AN      X      Y      Z        X      Y      Z        X      Y      Z
   1   6    -0.07   0.09  -0.06    -0.03   0.06  -0.02     0.00   0.02   0.02
   2   1     0.07   0.05   0.14     0.04   0.03   0.09    -0.01  -0.00  -0.01
   3   1     0.05  -0.01   0.00     0.06   0.00   0.02    -0.00  -0.02  -0.01
   4   1    -0.01  -0.03   0.04    -0.01  -0.02   0.05     0.00  -0.02  -0.01
   5   6     0.02  -0.29  -0.14    -0.02  -0.31  -0.22    -0.00  -0.06  -0.04
   6   1     0.00   0.32   0.19    -0.01   0.28   0.19    -0.00   0.03   0.03
   7   1     0.00   0.32   0.19     0.02   0.29   0.17     0.01   0.03   0.02
   8   6     0.05  -0.15  -0.01     0.01   0.34   0.22    -0.01   0.17   0.08
   9   1     0.01   0.14   0.06     0.01  -0.32  -0.19    -0.00  -0.12  -0.06
  10   1    -0.02   0.13   0.08    -0.01  -0.32  -0.18     0.01  -0.11  -0.06
  11   6    -0.02   0.28   0.14     0.02  -0.13  -0.03    -0.01  -0.28  -0.18
  12   1     0.00  -0.31  -0.17     0.01   0.09   0.02    -0.01   0.20   0.14
  13   1     0.01  -0.30  -0.17    -0.03   0.08   0.04     0.02   0.21   0.12
  14   6    -0.07   0.13  -0.04     0.03  -0.15  -0.04    -0.05   0.40   0.15
  15   1    -0.02  -0.15  -0.10     0.01   0.18   0.12    -0.02  -0.39  -0.26
  16   1    -0.00  -0.15  -0.11     0.00   0.18   0.12    -0.02  -0.39  -0.25
  17   8     0.08  -0.05   0.10    -0.05   0.03  -0.06     0.09  -0.06   0.11
  18   1    -0.09  -0.04  -0.18     0.06   0.03   0.11    -0.11  -0.05  -0.21
                     37                     38                     39
                        a                      a                      a 
 Frequencies --  2957.5611              2973.4444              3030.2639
 Red. masses --    99.0000                99.0000                99.0000
 Frc consts  --    99.0000                99.0000                99.0000
 IR Inten    --    99.0000                99.0000                99.0000
 Raman Activ --     0.0000                 0.0000                 0.0000
 Depolar     --     0.0000                 0.0000                 0.0000
 Atom AN      X      Y      Z        X      Y      Z        X      Y      Z
   1   6    -0.00  -0.00   0.00     0.03   0.01  -0.02     0.24   0.08  -0.14
   2   1    -0.00  -0.00   0.00     0.01   0.00  -0.00     0.03   0.02  -0.02
   3   1     0.00   0.01  -0.02    -0.03  -0.04   0.07    -0.20  -0.31   0.55
   4   1     0.02   0.00   0.00    -0.09   0.00  -0.01    -0.67   0.01  -0.03
   5   6     0.09   0.03  -0.06    -0.22  -0.08   0.13     0.04   0.01  -0.02
   6   1    -0.28   0.01  -0.01     0.60  -0.01   0.02    -0.09   0.00  -0.00
   7   1    -0.08  -0.13   0.23     0.18   0.28  -0.49    -0.03  -0.04   0.07
   8   6    -0.21  -0.08   0.13    -0.09  -0.03   0.05     0.01   0.00  -0.01
   9   1     0.61  -0.01   0.02     0.24  -0.00   0.01    -0.03   0.00  -0.00
  10   1     0.18   0.29  -0.50     0.07   0.11  -0.19    -0.01  -0.01   0.02
  11   6     0.04   0.01  -0.02     0.07   0.02  -0.04     0.00   0.00  -0.00
  12   1    -0.12   0.00  -0.01    -0.19   0.00  -0.01    -0.01  -0.00  -0.00
  13   1    -0.03  -0.06   0.10    -0.05  -0.09   0.15    -0.00  -0.01   0.01
  14   6     0.00   0.00  -0.00     0.00   0.00  -0.00     0.00   0.00  -0.00
  15   1     0.00  -0.00   0.00    -0.00  -0.00  -0.00    -0.00   0.00   0.00
  16   1    -0.00   0.00  -0.00    -0.00  -0.00   0.00    -0.00  -0.00   0.00
  17   8     0.00   0.00  -0.00     0.00   0.00  -0.00    -0.00  -0.00   0.00
  18   1    -0.00  -0.00   0.00    -0.00  -0.00   0.00     0.00   0.00  -0.00
                     40                     41                     42
                        a                      a                      a 
 Frequencies --  2849.3202              2989.5279              2882.8384
 Red. masses --    99.0000                99.0000                99.0000
 Frc consts  --    99.0000                99.0000                99.0000
 IR Inten    --    99.0000                99.0000                99.0000
 Raman Activ --     0.0000                 0.0000                 0.0000
 Depolar     --     0.0000                 0.0000                 0.0000
 Atom AN      X      Y      Z        X      Y      Z        X      Y      Z
   1   6     0.00   0.00  -0.00     0.01   0.00  -0.01     0.00  -0.00   0.00
   2   1     0.00  -0.00  -0.00     0.00   0.00  -0.00    -0.00   0.00  -0.00
   3   1    -0.00  -0.00   0.00    -0.01  -0.02   0.03     0.00   0.00  -0.00
   4   1    -0.00   0.00   0.00    -0.04   0.00  -0.00    -0.00  -0.00   0.00
   5   6     0.00   0.00  -0.00    -0.04  -0.02   0.03     0.00  -0.00   0.00
   6   1    -0.00  -0.00  -0.00     0.12  -0.00   0.00    -0.00  -0.00  -0.00
   7   1    -0.00  -0.00   0.00     0.04   0.06  -0.10     0.00   0.00  -0.00
   8   6     0.01   0.00  -0.00    -0.07  -0.03   0.04     0.00  -0.00   0.01
   9   1    -0.01   0.00   0.00     0.18  -0.00   0.00    -0.02   0.00   0.00
  10   1    -0.00  -0.01   0.01     0.06   0.09  -0.15     0.01   0.01  -0.02
  11   6     0.01   0.00  -0.00    -0.23  -0.08   0.14     0.00   0.00   0.00
  12   1    -0.04   0.00  -0.00     0.64  -0.00   0.03    -0.03  -0.00  -0.00
  13   1    -0.01  -0.02   0.03     0.19   0.29  -0.53     0.01   0.01  -0.02
  14   6    -0.24  -0.09   0.15    -0.02  -0.01   0.01    -0.11   0.09  -0.13
  15   1     0.67  -0.02   0.02     0.04   0.00  -0.00     0.69   0.01  -0.03
  16   1     0.20   0.33  -0.55     0.01   0.02  -0.03    -0.26  -0.32   0.55
  17   8    -0.01  -0.00   0.00     0.00   0.00  -0.00    -0.01  -0.01  -0.02
  18   1     0.00   0.00  -0.00    -0.00  -0.00   0.00    -0.00  -0.00  -0.00
                     43                     44                     45
                        a                      a                      a 
 Frequencies --  2975.0570              2985.0948              3000.6387
 Red. masses --    99.0000                99.0000                99.0000
 Frc consts  --    99.0000                99.0000                99.0000
 IR Inten    --    99.0000                99.0000                99.0000
 Raman Activ --     0.0000                 0.0000                 0.0000
 Depolar     --     0.0000                 0.0000                 0.0000
 Atom AN      X      Y      Z        X      Y      Z        X      Y      Z
   1   6    -0.00   0.01  -0.01    -0.02   0.03  -0.01    -0.01   0.01  -0.01
   2   1     0.00  -0.01  -0.00     0.02  -0.06  -0.00     0.01  -0.03  -0.00
   3   1    -0.01  -0.01   0.01    -0.03  -0.03   0.06    -0.01  -0.02   0.03
   4   1     0.02  -0.00  -0.00     0.07   0.01  -0.00     0.04   0.00  -0.00
   5   6    -0.03   0.02  -0.04     0.11  -0.08   0.14     0.02  -0.02   0.03
   6   1     0.20   0.00  -0.01    -0.64  -0.01   0.02    -0.14  -0.00   0.01
   7   1    -0.07  -0.09   0.16     0.24   0.30  -0.52     0.05   0.07  -0.12
   8   6     0.11  -0.08   0.14     0.03  -0.02   0.04     0.02  -0.02   0.03
   9   1    -0.65  -0.01   0.02    -0.17  -0.00   0.01    -0.12  -0.00   0.00
  10   1     0.24   0.31  -0.53     0.06   0.08  -0.14     0.05   0.06  -0.10
  11   6    -0.01   0.01  -0.01    -0.03   0.02  -0.04     0.11  -0.08   0.15
  12   1     0.08   0.00  -0.00     0.17   0.00  -0.00    -0.66  -0.02   0.01
  13   1    -0.03  -0.04   0.07    -0.06  -0.08   0.15     0.24   0.30  -0.54
  14   6     0.00  -0.00   0.00    -0.00   0.00  -0.00     0.01  -0.01   0.01
  15   1    -0.02   0.00   0.00    -0.00   0.00   0.00    -0.03  -0.00   0.00
  16   1     0.01   0.01  -0.02    -0.00   0.00   0.00     0.01   0.01  -0.02
  17   8     0.00  -0.00   0.00     0.00  -0.00  -0.00    -0.00   0.00  -0.00
  18   1    -0.00   0.00   0.00    -0.00   0.00   0.00     0.00  -0.01  -0.00
                     46                     47                     48
                        a                      a                      a 
 Frequencies --  3033.2963              3038.8194              3564.4397
 Red. masses --    99.0000                99.0000                99.0000
 Frc consts  --    99.0000                99.0000                99.0000
 IR Inten    --    99.0000                99.0000                99.0000
 Raman Activ --     0.0000                 0.0000                 0.0000
 Depolar     --     0.0000                 0.0000                 0.0000
 Atom AN      X      Y      Z        X      Y      Z        X      Y      Z
   1   6    -0.14   0.19  -0.13    -0.01   0.16   0.07     0.00  -0.00  -0.00
   2   1     0.16  -0.46  -0.01     0.29  -0.78   0.02    -0.00  -0.00  -0.00
   3   1    -0.22  -0.25   0.48     0.12   0.19  -0.30    -0.00  -0.00   0.00
   4   1     0.57   0.04  -0.01    -0.37   0.02   0.00     0.00   0.00  -0.00
   5   6    -0.02   0.02  -0.02    -0.00   0.01   0.00    -0.00  -0.00  -0.00
   6   1     0.08   0.00  -0.00     0.01   0.00   0.00    -0.00   0.00   0.00
   7   1    -0.03  -0.04   0.07    -0.00  -0.00   0.01     0.00   0.00  -0.00
   8   6    -0.01   0.01  -0.01     0.00  -0.00   0.00     0.00  -0.00   0.00
   9   1     0.05  -0.00  -0.00    -0.00  -0.00   0.00     0.00  -0.00  -0.00
  10   1    -0.02  -0.02   0.04     0.00   0.00  -0.00    -0.00  -0.00   0.00
  11   6    -0.00   0.00  -0.00    -0.00   0.00  -0.00    -0.00  -0.00  -0.00
  12   1     0.02   0.00  -0.00     0.00  -0.00  -0.00    -0.01   0.00   0.00
  13   1    -0.01  -0.01   0.02    -0.00  -0.00   0.00     0.00   0.00  -0.00
  14   6    -0.00   0.00  -0.00     0.00  -0.00  -0.00     0.00  -0.00  -0.00
  15   1     0.00  -0.00  -0.00    -0.00  -0.00  -0.00    -0.00   0.00  -0.00
  16   1    -0.00  -0.00   0.00     0.00   0.00  -0.00    -0.00   0.00  -0.00
  17   8     0.00  -0.00   0.00     0.00   0.00   0.00     0.08  -0.23  -0.01
  18   1    -0.00   0.00  -0.00    -0.00   0.00  -0.00    -0.31   0.92   0.03
