 
        ______________________________________
       |                                      |
       |           ==================         |
       |                 x T B                |
       |           ==================         |
       |               S. Grimme              |
       |        Universitaet Bonn, MCTC       |
       |         2015-18, Version 5.8.1       |
       |      Sun May  6 11:39:08 CEST 2018   |
       |______________________________________|
 
        This code comes without any warranty
        for non-commercial, academia use only.
        Preliminary GFN2 test version.
        Test license to: Dow Chemical Company
        Cite GFN-xTB work as:
        S. Grimme, C. Bannwarth, P. Shushkov
        JCTC, 13 (2017) 1989-2009
        for GFN2:
        C. Bannwarth, S. Ehlert, S. Grimme
        to be published.
        sTDA-xTB:
        S. Grimme  &  C. Bannwarth, JCP 145 (2016) 054103
        in the mass-spec context additionally:
        V. Asgeirsson, C.Bauer, S. Grimme, Chem. Sci. 8 (2017) 4879
 
        with help from
        P. Shushkov, G. Brandenburg, S. Dohm, J. Pisarek,
        F. März, M. Checinski, S. Ehrlich, S. Spicher, 
        P. Pracht, E. Caldeweyher, S. Ehlert, and C. Bannwarth.
 
        usage        :
        xtb <coord_file> [options]
        where <coord_file> is a valid file of TM)
        (*coord, Bohr) or xmol (*xyz, Angstroem)
        format.

        options:
        -chrg <int>   : molecular charge
        -uhf  <int>   : # of unpaired electrons(=2*S)
        -nox          : skip second, extended part in sTDA-xTB
        -pop          : do population analysis
                      : (default for -nox)
        -mowr <real>  : cut MO write above (def.3 Eh)
        -molden       : write formatted molden file
        -parx <file>  : read parameters for sTDA-xTB
                        calc (def:~/.param_stda2.xtb)
        -parv <file>  : read parameters for vTB part in
                        sTDA-xTB (def: ~/.param_stda1.xtb)
        -xtemp <real> : el. temp for xTB (def. 0 K)
        -etemp <real> : el. temp for GFN (def. 300 K)
        -fod          : calculate the FOD and write
                        molden.input file with
                        appropriate occupations
                        for plotting. Def. T=12500 K
 
        -gfn1         : use GFN-xTB
        -gfn2         : use GFN2-xTB
        -gfn2d3       : GFN2-xTB with D3 instead of D4
        -grad         : GFNn-xTB gradient
        -acc <real>   : GFNn-xTB accuracy (def. 1.0)
        -opt [level]  : optimize at GFNn-xTB
                      : level=crude,vloose,loose,
                      :       tight,vtight
        -hess         : compute Hessian at GFNn-xTB
        -ohess        : optimize and compute Hessian
        -omd          : optimize and do MD
        -siman        : conformational search
        -screen       : opt. loop over ensemble
        -gmd          : annealed MD for GMD procedure
        -modef        : vib mode following
        -gbsa [string1] [string2]
                        use GBSA implicit solvent
                        for solvent [string1] and
                        solvation state [string2]=
                        reference, bar1M (default=1M)
        additional GFN/opt/MD/siman options read from
        $XTBHOME/.xtbrc or $set in coordinate file
 
       spin and charge state information can be on:
       <.CHRG> (charge) and <.UHF> (=nalpha-nbeta)
       -uhf and -chrg override the file info.
       useful machine settings:
       setenv MKL_NUM_THREADS <NCORE_ON_YOUR_MACHINE>
       setenv OMP_STACKSIZE 500m
       limit stacksize unlimited
 
       total energies in Eh, gaps/HL energies in eV
       please read REVISION and HOWTO files carefully
          72  days left until this code expires
 =============================
  # OMP threads =           2
 =============================
 
 xtbhome directory:/home/ua25450/dftb/
 
 argument            1 :-ohess
 
 name of molecule           :
 comment line               :
 number of atoms            :    15
 number of electrons        :    30
 charge                     :  0
 spin                       : 0.0
 first test random number   :  0.4389
 
 
 -----------------------------------------
  G F N (Geometry, Frequency, Non-covalent)
        parametrization, gfnver=           3
     D4 dispersion model
 /home/ua25450/dftb/.param_gfn2.xtb
 -----------------------------------------
      method parameters     
 k(s)        :  1.8500
 k(p)        :  2.2300
 k(d)        :  2.2300
 k(f)        :  2.0000
 kEN (H0ij)  : -2.0000
 D3 a1       :  0.5200
 D3 a2       :  5.0000
 D3 s8       :  2.7000
 D3atm       :  5.0000
 alphaj      :  2.0000
 
     -------------------------
     ! NO SOLVENT MODEL USED !
     -------------------------
 
 doing EN charges ...
 sum q :  0.1110223D-14
 point charge moment (au)
     X       Y       Z   
  -0.0077   0.0015  -0.0003  total (Debye):    0.020
 
            Z     q(EN)     CN     RAES       Cart. coordinates
     1  C   4.0   -0.09    4.18    3.96     2.97500    -1.09654     0.22104
     2  C   4.0   -0.09    4.19    3.99     5.79477    -1.03680    -0.40937
     3  C   4.0   -0.09    4.19    3.99     6.59710     1.60165     0.42515
     4  C   4.0   -0.09    4.18    3.96     4.42682     3.25831    -0.51253
     5  C   4.0   -0.09    4.17    3.93     2.04216     1.63216    -0.16996
     6  H   1.0    0.05    1.01    1.43     1.95027    -2.44082    -0.95331
     7  H   1.0    0.05    1.01    1.43     2.72014    -1.65572     2.18870
     8  H   1.0    0.05    1.01    1.43     6.07399    -1.23631    -2.44298
     9  H   1.0    0.05    1.01    1.43     6.84377    -2.53169     0.54037
    10  H   1.0    0.05    1.01    1.43     6.71314     1.67855     2.48287
    11  H   1.0    0.05    1.01    1.43     8.41632     2.16971    -0.35279
    12  H   1.0    0.05    1.01    1.43     4.30537     5.04025     0.51013
    13  H   1.0    0.05    1.01    1.43     4.70757     3.68977    -2.50901
    14  H   1.0    0.05    1.01    1.43     0.95284     2.26218     1.46032
    15  H   1.0    0.05    1.01    1.43     0.82074     1.77315    -1.82167
 
  Z AO/shell   Hii/eV     exponent
  1     Wed Apr 25 08:07:45 CEST 2018   EN: 2.200 GM2: 0.406  GM3: 0.0800  RAES: 1.40
     1s    -10.707211    1.230000
  6     Wed Apr 25 08:07:45 CEST 2018   EN: 2.550 GM2: 0.538  GM3: 0.1500  RAES: 3.00
     2s    -13.970922    2.096432
     2p    -10.063292    1.800000
 
Refinement of some symmetry elements was terminated before convergence was reached.
Some symmetry elements may remain unidentified.
Molecule has no symmetry elements
It seems to be the C1 point group
c1  symmetry found (for desy threshold:  0.10E+00) used in thermo
 no old-style atom pair restraing (fixing) potential
 
             =======================================
             |                                     |
             |        S C C  calculation           |
             |                                     |
             =======================================
 #proc     :            2
 Ncao      :           30
 Nao       :           30
 Nel       :           30
 T(el)     :   300.0
 intcut    :    25.0
 scfconv   :  0.100E-05
   qconv   :  0.100E-03
 intneglect:  0.100E-07
 broydamp  :      0.400
 Nshell    :           20
  q data taken from xtbrestart
  CAMM data taken from xtbrestart
 iter      E             dE          RMSdq      gap      omega  full diag
   1    -16.0488313 -0.160488E+02  0.323E-06   13.20       0.0  T
   2    -16.0488313 -0.142109E-13  0.186E-06   13.20   13911.8  T
   3    -16.0488313  0.710543E-14  0.354E-07   13.20   72956.7  T
speedup  1.00
cpu  time for SCC    0.01 s
wall time for SCC    0.01 s

          eigenvalues
 #    :           3          4          5          6          7          8          9         10
 occ. :        2.000      2.000      2.000      2.000      2.000      2.000      2.000      2.000
 eps  :       -16.230    -15.025    -14.911    -14.180    -14.065    -13.142    -13.119    -11.993
 #    :          11         12         13         14         15         16         17         18
 occ. :        2.000      2.000      2.000      2.000      2.000      0.000      0.000      0.000
 eps  :       -11.920    -11.873    -11.869    -11.463    -11.278      1.918      1.943      2.477
 #    :          19         20         21         22         23         24         25         26
 occ. :        0.000      0.000      0.000      0.000      0.000      0.000      0.000      0.000
 eps  :         3.593      3.657      3.917      4.778      5.053      5.155      5.738      5.767
 

   #   Z            q   n(s)   n(p)   n(d)      C6AA      α(0)    relVol
   1   6 C     -0.056  1.052  3.005  0.000    21.602     6.616     0.535
   2   6 C     -0.055  1.050  3.005  0.000    21.573     6.610     0.535
   3   6 C     -0.055  1.050  3.005  0.000    21.571     6.610     0.535
   4   6 C     -0.056  1.052  3.005  0.000    21.594     6.614     0.535
   5   6 C     -0.057  1.052  3.005  0.000    21.623     6.620     0.536
   6   1 H      0.027  0.973  0.000  0.000     2.627     2.535     0.501
   7   1 H      0.029  0.971  0.000  0.000     2.599     2.521     0.499
   8   1 H      0.031  0.969  0.000  0.000     2.571     2.507     0.496
   9   1 H      0.026  0.974  0.000  0.000     2.642     2.542     0.503
  10   1 H      0.031  0.969  0.000  0.000     2.567     2.505     0.496
  11   1 H      0.026  0.974  0.000  0.000     2.643     2.542     0.503
  12   1 H      0.027  0.973  0.000  0.000     2.631     2.536     0.502
  13   1 H      0.029  0.971  0.000  0.000     2.594     2.518     0.498
  14   1 H      0.028  0.972  0.000  0.000     2.615     2.528     0.500
  15   1 H      0.028  0.972  0.000  0.000     2.617     2.530     0.501

 Mol. C6AA /au*bohr^6 :       1546.876143
 Mol. C8AA /au*bohr^6 :      32717.003844
 Mol. a(0) /au        :         58.332590

 
 Wiberg/Mayer (AO) data. WBOs > 0.1 written file <wbo>
 largest (>0.05) Wiberg bond orders for each atom
           total WBO             WBO to atom ...
     1  C   3.998    C    2 1.007    C    5 1.002    H    7 0.983    H    6 0.983
     2  C   3.998    C    3 1.008    C    1 1.007    H    8 0.980    H    9 0.980
     3  C   3.998    C    2 1.008    C    4 1.008    H   10 0.980    H   11 0.980
     4  C   3.998    C    3 1.008    C    5 1.003    H   13 0.983    H   12 0.982
     5  C   3.998    C    4 1.003    C    1 1.002    H   14 0.985    H   15 0.984
     6  H   0.999    C    1 0.983
     7  H   0.999    C    1 0.983
     8  H   0.999    C    2 0.980
     9  H   0.999    C    2 0.980
    10  H   0.999    C    3 0.980
    11  H   0.999    C    3 0.980
    12  H   0.999    C    4 0.982
    13  H   0.999    C    4 0.983
    14  H   0.999    C    5 0.985
    15  H   0.999    C    5 0.984
 
molecular dipole:
                 x           y           z       tot (Debye)
 q only:        0.004      -0.001       0.000
   full:        0.000      -0.000       0.000       0.001
molecular quadrupole (traceless):
                xx          xy          yy          xz          yz          zz
 q only:        0.081       0.002       0.031       0.000      -0.017      -0.112
  q+dip:       -0.815      -0.001      -0.796      -0.069       0.131       1.612
   full:       -0.419       0.001      -0.402      -0.041       0.055       0.821
 SCC converged in            3  cycles
 
SCC energy    :     -16.0488313
rep           :       0.2345107
ES            :       0.0023362
AES           :       0.0042436
AXC           :       0.0097099
disp          :      -0.0081360
XB            :       0.0000000
fix           :       0.0000000
total E       :     -15.8143102
atomizationE  :       3.7650900     2362.63
(atE without considerung molecular charge,
 total energy contains solvation terms)
H-L gap (eV)  :         13.1958
 
             =======================================
             |                                     |
             |    Approximate Normal Coordinate    |
             |   Rational Function Optimization    |
             |                                     |
             =======================================
Ref. for RF algo: F.Eckert, P.Pulay, H.-J.Werner
                  J.Comput.Chem. 18 (1997) 1473.
ANC idea implemented by S. Grimme in the 2000ers (unpublished)
restraining potential by S. Ehrlich.
dumping coords to <xtbopt.coord> and <xtbopt.log
 optlevel               1
 Maxcycle             200
 Maxmicro              20
 Econv         1.000000000000000E-006
 Gconv         8.000000000000000E-004
 Maxdispl       1.00000000000000     
 Hlow          1.000000000000000E-002
 S6             20.0000000000000     
 Nvar               39

generating ANC from read Hessian ...
 Shifting diagonal of input Hessian by   9.998112839608005E-003
 Lowest  eigenvalues of input Hessian
   -0.000000    0.000000    0.000000    0.000000    0.000000    0.000000
    0.010000    0.013838    0.029603    0.039295    0.043540    0.050590
    0.053666    0.056814    0.064279    0.064727    0.069459    0.069780
 Highest eigenvalues
    0.763505    0.778416    0.783721    0.785833    0.839010    0.840971
 
cpu  time for ANC gen    0.01 s
wall time for ANC gen    0.01 s
................................................................................
.............................. CYCLE    1 ......................................
................................................................................
  q data taken from xtbrestart
  CAMM data taken from xtbrestart
   1    -16.0488313 -0.160488E+02  0.102E-07   13.20       0.0  T
   2    -16.0488313 -0.710543E-14  0.557E-08   13.20  100000.0  T
   3    -16.0488313  0.000000E+00  0.188E-08   13.20  100000.0  T
speedup  1.00
cpu  time for SCC    0.00 s
wall time for SCC    0.00 s
speedup  1.00
cpu  time for grad    0.00 s
wall time for grad    0.00 s
 E :    -15.81431024  G :  0.000116    pred/act E change:  0.000D+00 -0.377D-12
Maxdispl :   0.0006   ||displ|| :   0.0007   Lambda : -0.432D-07
Largest |displ|/coords:  0.0006 (   4)  0.0002 (   3)  0.0002 (  16)
ancopt converged in          1 cycles
total energy gain (kcal):      0.0000
================
 final structure:
================
    15
        -15.81431024
C           1.57430480653276   -0.58026365994357    0.11697183009486
C           3.06646060188063   -0.54865221650765   -0.21662911821241
C           3.49103760333830    0.84755882415374    0.22498214886348
C           2.34257182130718    1.72422091307767   -0.27121924204472
C           1.08066689920137    0.86370058012072   -0.08993874521845
H           1.03203937513798   -1.29162695852206   -0.50446811277210
H           1.43943392282555   -0.87616808790474    1.15821278013634
H           3.21421860265518   -0.65422768650482   -1.29277005637554
H           3.62156491054291   -1.33971322910699    0.28595255103248
H           3.55244021345472    0.88824795962188    1.31387855690345
H           4.45372344350708    1.14816218368445   -0.18668965552708
H           2.27830158132309    2.66718538083406    0.26994736617812
H           2.49113698422043    1.95254322654543   -1.32771006103439
H           0.50421997794918    1.19709361084234    0.77276967183585
H           0.43431855612361    0.93831105960949   -0.96398391385993
 
 Bond Distances (Angstroems)
 ---------------------------
C1-C2=1.5293         C1-C5=1.5400         C1-H6=1.0892         C1-H7=1.0908         C2-C1=1.5293         C2-C3=1.5247         
C2-H8=1.0914         C2-H9=1.0893         C3-C2=1.5247         C3-C4=1.5277         C3-H10=1.0914        C3-H11=1.0893        
C4-C3=1.5277         C4-C5=1.5381         C4-H12=1.0891        C4-H13=1.0910        C5-C1=1.5400         C5-C4=1.5381         
C5-H14=1.0898        C5-H15=1.0896        H6-C1=1.0892         H7-C1=1.0908         H8-C2=1.0914         H9-C2=1.0893         
H10-C3=1.0914        H11-C3=1.0893        H12-C4=1.0891        H13-C4=1.0910        H14-C5=1.0898        H15-C5=1.0896        
 C  H  Rav=1.0901 sigma=0.0009  Rmin=1.0891  Rmax=1.0914    10
 C  C  Rav=1.5319 sigma=0.0060  Rmin=1.5247  Rmax=1.5400     5
 
 selected bond angles (degree)
 --------------------
C5-C1-C2=105.31                H6-C1-C2=112.01                H6-C1-C5=112.10                H7-C1-C2=109.54                
H7-C1-C5=110.06                H7-C1-H6=107.81                C3-C2-C1=103.15                H8-C2-C1=110.19                
H8-C2-C3=109.66                H9-C2-C1=112.43                H9-C2-C3=112.92                H9-C2-H8=108.40                
C4-C3-C2=102.83                H10-C3-C2=109.80               H10-C3-C4=110.18               H11-C3-C2=112.91               
H11-C3-C4=112.54               H11-C3-H10=108.48              C5-C4-C3=104.92                H12-C4-C3=112.32               
H12-C4-C5=112.17               H13-C4-C3=109.41               H13-C4-C5=110.06               H13-C4-H12=107.94              
C4-C5-C1=106.11                H14-C5-C1=110.49               H14-C5-C4=110.86               H15-C5-C1=111.23               
H15-C5-C4=110.72               H15-C5-H14=107.47              
 
 selected dihedral angles (degree)
 ---------------------------------
C3-C2-C1-C5= 32.68            C3-C2-C1-H6=154.78            C3-C2-C1-H7=274.36            H8-C2-C1-C5=275.68            
H8-C2-C1-H6= 37.77            H8-C2-C1-H7=157.35            H9-C2-C1-C5=154.63            H9-C2-C1-H6=276.73            
H9-C2-C1-H7= 36.30            C4-C3-C2-C1=317.61            C4-C3-C2-H8= 75.00            C4-C3-C2-H9=196.00            
H10-C3-C2-C1= 74.88           H10-C3-C2-H8=192.26           H10-C3-C2-H9=313.26           H11-C3-C2-C1=196.08           
H11-C3-C2-H8=313.46           H11-C3-C2-H9= 74.46           C5-C4-C3-C2= 35.83            C5-C4-C3-H10=278.84           
C5-C4-C3-H11=157.63           H12-C4-C3-C2=157.95           H12-C4-C3-H10= 40.95          H12-C4-C3-H11=279.74          
H13-C4-C3-C2=277.79           H13-C4-C3-H10=160.80          H13-C4-C3-H11= 39.59          C4-C5-C1-C2=349.47            
C4-C5-C1-H6=227.42            C4-C5-C1-H7=107.44            H14-C5-C1-C2=229.23           H14-C5-C1-H6=107.19           
H14-C5-C1-H7=347.21           H15-C5-C1-C2=109.95           H15-C5-C1-H6=347.91           H15-C5-C1-H7=227.93           
C1-C5-C4-C3=344.39            C1-C5-C4-H12=222.18           C1-C5-C4-H13=101.99           H14-C5-C4-C3=104.39           
H14-C5-C4-H12=342.18          H14-C5-C4-H13=221.99          H15-C5-C4-C3=223.58           H15-C5-C4-H12=101.37          
H15-C5-C4-H13=341.18          
 
             =======================================
             |                                     |
             |        S C C  calculation           |
             |                                     |
             =======================================
 #proc     :            2
 Ncao      :           30
 Nao       :           30
 Nel       :           30
 T(el)     :   300.0
 intcut    :    25.0
 scfconv   :  0.100E-05
   qconv   :  0.100E-03
 intneglect:  0.100E-07
 broydamp  :      0.400
 Nshell    :           20
 iter      E             dE          RMSdq      gap      omega  full diag
   1    -16.0488313 -0.160488E+02  0.476E-09   13.20       0.0  T
   2    -16.0488313 -0.213163E-13  0.172E-09   13.20  100000.0  T
   3    -16.0488313  0.710543E-14  0.104E-09   13.20  100000.0  T
speedup  1.00
cpu  time for SCC    0.00 s
wall time for SCC    0.00 s

          eigenvalues
 #    :           3          4          5          6          7          8          9         10
 occ. :        2.000      2.000      2.000      2.000      2.000      2.000      2.000      2.000
 eps  :       -16.230    -15.025    -14.911    -14.180    -14.065    -13.142    -13.119    -11.993
 #    :          11         12         13         14         15         16         17         18
 occ. :        2.000      2.000      2.000      2.000      2.000      0.000      0.000      0.000
 eps  :       -11.920    -11.873    -11.869    -11.463    -11.278      1.918      1.943      2.477
 #    :          19         20         21         22         23         24         25         26
 occ. :        0.000      0.000      0.000      0.000      0.000      0.000      0.000      0.000
 eps  :         3.593      3.657      3.917      4.778      5.053      5.155      5.738      5.767
 

   #   Z            q   n(s)   n(p)   n(d)      C6AA      α(0)    relVol
   1   6 C     -0.056  1.052  3.005  0.000    21.602     6.616     0.535
   2   6 C     -0.055  1.050  3.005  0.000    21.573     6.610     0.535
   3   6 C     -0.055  1.050  3.005  0.000    21.571     6.610     0.535
   4   6 C     -0.056  1.052  3.005  0.000    21.594     6.614     0.535
   5   6 C     -0.057  1.052  3.005  0.000    21.623     6.620     0.536
   6   1 H      0.027  0.973  0.000  0.000     2.627     2.535     0.501
   7   1 H      0.029  0.971  0.000  0.000     2.599     2.521     0.499
   8   1 H      0.031  0.969  0.000  0.000     2.571     2.507     0.496
   9   1 H      0.026  0.974  0.000  0.000     2.642     2.542     0.503
  10   1 H      0.031  0.969  0.000  0.000     2.567     2.505     0.496
  11   1 H      0.026  0.974  0.000  0.000     2.643     2.542     0.503
  12   1 H      0.027  0.973  0.000  0.000     2.631     2.536     0.502
  13   1 H      0.029  0.971  0.000  0.000     2.594     2.518     0.498
  14   1 H      0.028  0.972  0.000  0.000     2.615     2.528     0.500
  15   1 H      0.028  0.972  0.000  0.000     2.617     2.530     0.501

 Mol. C6AA /au*bohr^6 :       1546.876143
 Mol. C8AA /au*bohr^6 :      32717.003844
 Mol. a(0) /au        :         58.332590

 
 Wiberg/Mayer (AO) data. WBOs > 0.1 written file <wbo>
 largest (>0.05) Wiberg bond orders for each atom
           total WBO             WBO to atom ...
     1  C   3.998    C    2 1.007    C    5 1.002    H    7 0.983    H    6 0.983
     2  C   3.998    C    3 1.008    C    1 1.007    H    8 0.980    H    9 0.980
     3  C   3.998    C    2 1.008    C    4 1.008    H   10 0.980    H   11 0.980
     4  C   3.998    C    3 1.008    C    5 1.003    H   13 0.983    H   12 0.982
     5  C   3.998    C    4 1.003    C    1 1.002    H   14 0.985    H   15 0.984
     6  H   0.999    C    1 0.983
     7  H   0.999    C    1 0.983
     8  H   0.999    C    2 0.980
     9  H   0.999    C    2 0.980
    10  H   0.999    C    3 0.980
    11  H   0.999    C    3 0.980
    12  H   0.999    C    4 0.982
    13  H   0.999    C    4 0.983
    14  H   0.999    C    5 0.985
    15  H   0.999    C    5 0.984
 
molecular dipole:
                 x           y           z       tot (Debye)
 q only:        0.004      -0.001       0.000
   full:        0.000      -0.000       0.000       0.001
molecular quadrupole (traceless):
                xx          xy          yy          xz          yz          zz
 q only:        0.081       0.002       0.031       0.000      -0.017      -0.112
  q+dip:       -0.815      -0.001      -0.796      -0.069       0.131       1.612
   full:       -0.419       0.001      -0.402      -0.041       0.055       0.821
 SCC converged in            3  cycles
 
SCC energy    :     -16.0488313
rep           :       0.2345107
ES            :       0.0023362
AES           :       0.0042436
AXC           :       0.0097099
disp          :      -0.0081360
XB            :       0.0000000
fix           :       0.0000000
total E       :     -15.8143102
atomizationE  :       3.7650900     2362.63
(atE without considerung molecular charge,
 total energy contains solvation terms)
H-L gap (eV)  :         13.1958
 !!!!!!!!!!!!!!!!!!!!!!!!!!!!!!!!!!!
 ! Note: the input coordinates are !
 ! NOT overwritten. The optimized  !
 ! ones are on file <xtbopt.coord> !
 ! (or on <xtbopt.xyz> if it was a !
 ! xyz file)                       !
 !!!!!!!!!!!!!!!!!!!!!!!!!!!!!!!!!!!
 
Refinement of some symmetry elements was terminated before convergence was reached.
Some symmetry elements may remain unidentified.
Molecule has no symmetry elements
It seems to be the C1 point group
c1  symmetry found (for desy threshold:  0.10E+00) used in thermo
  q data taken from xtbrestart
  CAMM data taken from xtbrestart
 
             =======================================
             |                                     |
             |         Numerical Hessian           |
             |                                     |
             =======================================
step length          :   0.00500
SCC accuracy         :   0.30000
Hessian scale factor :   1.00000
frozen atoms in %    :   0.00000    0
RMS gradient         :   0.00012
estimated CPU  time      0.01 min
estimated wall time      0.01 min
 
 writing file <hessian>.
 
 projected vibrational frequencies (cm-1)
eig.   :       -0.00    -0.00    -0.00     0.00     0.00     0.00
eig.   :        5.65   252.70   557.01   612.93   803.15   840.43
eig.   :      876.53   954.57   965.49   980.42  1000.19  1030.31
eig.   :     1101.27  1125.88  1163.40  1191.00  1206.18  1218.72
eig.   :     1239.33  1296.74  1307.75  1323.69  1324.66  1325.23
eig.   :     1484.04  1488.19  1498.29  1498.70  1516.59  2971.45
eig.   :     2972.18  2984.18  2986.31  2999.00  3000.96  3005.66
eig.   :     3009.16  3010.53  3013.29
 reduced masses (amu)
   1:  8.80   2:  9.82   3:  9.60   4: 10.15   5:  9.71   6:  8.66   7:  5.34   8:  5.57
   9:  6.72  10:  8.98  11:  2.61  12:  4.52  13:  6.04  14:  9.31  15:  5.44  16:  7.50
  17:  4.63  18:  3.60  19:  4.58  20:  8.31  21:  5.87  22:  4.90  23:  4.15  24:  4.82
  25:  2.68  26:  4.05  27:  2.94  28:  3.72  29:  5.02  30:  4.98  31:  1.89  32:  1.93
  33:  2.03  34:  2.02  35:  2.02  36:  1.91  37:  1.84  38:  1.89  39:  1.92  40:  1.62
  41:  1.58  42:  1.92  43:  1.59  44:  1.66  45:  1.55
 IR intensities (amu)
   1:  0.15   2:  0.10   3:  0.08   4:  0.13   5:  0.25   6:  0.08   7:  0.01   8:  0.01
   9:  0.09  10:  0.02  11:  0.02  12:  0.01  13:  0.05  14:  0.02  15:  0.02  16:  0.01
  17:  0.02  18:  0.02  19:  0.01  20:  0.02  21:  0.00  22:  0.03  23:  0.03  24:  0.02
  25:  0.03  26:  0.01  27:  0.03  28:  0.01  29:  0.04  30:  0.04  31:  0.00  32:  0.02
  33:  0.02  34:  0.02  35:  0.01  36:  0.02  37:  0.01  38:  0.03  39:  0.15  40:  0.32
  41:  0.01  42:  0.47  43:  0.37  44:  0.40  45:  0.09
 output can be read by thermo (or use thermo option).
 writing <g98.out> molden fake output.
 recommended (thermochemical) frequency scaling factor: 1.0
                    ==================
                    thermo calculation
                    ==================
Nvib :   39 Nimag : 0  symmetry :   c1  rot number :  1  scale factor : 1.00 sthr :  50.
omega=  5.65     Gvib=    -2.727     Grot=    -1.694     Gused=    -1.694
omega=252.70     Gvib=    -0.510     Grot=    -0.576     Gused=    -0.510
 
   temp. (K)  partition function   enthalpy   heat capacity  entropy
                                   cal/mol     cal/K/mol   cal/K/mol   J/K/mol
 298.15  VIB   68.3                 1480.598     12.244      9.894
         ROT  0.676E+05              888.752      2.981     25.083
         INT  0.462E+07             2369.351     15.225     34.976
         TR   0.568E+27             1481.254      4.968     38.643
         TOT                        3850.6046    20.1932    73.6194   308.0225
                     Eh         kcal/mol          kJ/mol 
ZPVE            0.139291         87.4066         365.708    
H(0)-H(T)+PV    0.613633E-02     3.85060         16.1109    
H(T)            0.145428         91.2572         381.819    
T*S             0.349790E-01     21.9496         91.8369    
G(T)            0.110449         69.3075         289.982    
    -15.70386167  <=== TOTAL FREE ENERGY in Eh incl. el.,ZPVE,RRHO,solv. parts
 
Eat (element increment corrected) /kcal :  1786.234
        -319.507  <=== HOF(298)/kcal, to be compared to exptl. data
 
 normal mode %tage of torsion character
   1:  0.00   2:  0.00   3:  0.00   4:  0.00   5:  0.00   6:  0.00   7:  0.37   8:  0.66
   9:  0.11  10:  0.40  11:  0.52  12:  0.42  13:  0.35  14:  0.37  15:  0.09  16:  0.14
  17:  0.10  18:  0.43  19:  0.05  20:  0.15  21:  0.11  22:  0.27  23:  0.03  24:  0.35
  25:  0.29  26:  0.10  27:  0.12  28:  0.11  29:  0.11  30:  0.11  31:  0.67  32:  0.57
  33:  0.51  34:  0.65  35:  0.59  36:  0.05  37:  0.25  38:  0.09  39:  0.05  40:  0.02
  41:  0.02  42:  0.03  43:  0.03  44:  0.01  45:  0.01
 recommended # of modes for mode following           4
 
speedup  0.98
cpu  time for all    0.75 s
wall time for all    0.77 s
