 Entering Gaussian System
 *********************************************
 Gaussian 98:
 frequency output generated by the xtb code
 *********************************************
                         Standard orientation:
 --------------------------------------------------------------------
  Center     Atomic     Atomic              Coordinates (Angstroms)
  Number     Number      Type              X           Y           Z
 --------------------------------------------------------------------
    1          6             0        1.574302   -0.580272    0.116967
    2          6             0        3.066457   -0.548669   -0.216639
    3          6             0        3.491043    0.847541    0.224968
    4          6             0        2.342580    1.724208   -0.271230
    5          6             0        1.080671    0.863695   -0.089944
    6          1             0        1.032031   -1.291633   -0.504469
    7          1             0        1.439433   -0.876174    1.158209
    8          1             0        3.214211   -0.654247   -1.292780
    9          1             0        3.621559   -1.339732    0.285942
   10          1             0        3.552449    0.888232    1.313865
   11          1             0        4.453729    1.148139   -0.186707
   12          1             0        2.278316    2.667174    0.269935
   13          1             0        2.491143    1.952528   -1.327722
   14          1             0        0.504229    1.197092    0.772766
   15          1             0        0.434320    0.938307   -0.963987
 --------------------------------------------------------------------
     1 basis functions        1 primitive gaussians
     1 alpha electrons        1 beta electrons
 
 Harmonic frequencies (cm**-1), IR intensities (KM/Mole),
 Raman scattering activities (A**4/amu), Raman depolarization ratios,
 reduced masses (AMU), force constants (mDyne/A) and normal coordinates:
                      1                      2                      3
                        a                      a                      a 
 Frequencies --     5.6465               252.7046               557.0076
 Red. masses --     5.3450                 5.5733                 6.7211
 Frc consts  --     0.0000                 0.0000                 0.0000
 IR Inten    --     0.0094                 0.0069                 0.0881
 Raman Activ --     0.0000                 0.0000                 0.0000
 Depolar     --     0.0000                 0.0000                 0.0000
 Atom AN      X      Y      Z        X      Y      Z        X      Y      Z
   1   6    -0.05  -0.06  -0.32     0.10   0.04   0.20     0.23   0.11  -0.01
   2   6     0.08   0.01   0.14    -0.04   0.14  -0.35     0.20  -0.34  -0.09
   3   6    -0.06   0.07   0.09    -0.16  -0.07   0.35    -0.38  -0.16  -0.13
   4   6     0.01  -0.09  -0.29     0.08  -0.11  -0.22    -0.10   0.26  -0.05
   5   6     0.02   0.08   0.38     0.04  -0.00   0.02     0.07   0.14   0.04
   6   1     0.04   0.10  -0.27    -0.04  -0.04   0.18    -0.04   0.01   0.11
   7   1    -0.12  -0.20  -0.16     0.17   0.09   0.10     0.15   0.12   0.03
   8   1     0.12  -0.03   0.06    -0.13   0.25  -0.14     0.18  -0.30   0.02
   9   1    -0.01   0.02   0.11     0.05  -0.04  -0.30     0.02   0.02   0.20
  10   1    -0.09   0.06   0.03    -0.27  -0.11   0.12    -0.34  -0.13  -0.02
  11   1     0.01   0.01   0.08     0.03   0.02   0.32    -0.02   0.02   0.21
  12   1     0.04   0.07  -0.25     0.02   0.05  -0.21     0.04  -0.01   0.13
  13   1    -0.02  -0.22  -0.13     0.09  -0.20  -0.09    -0.06   0.22   0.02
  14   1     0.23  -0.01   0.27     0.04   0.05   0.01     0.07  -0.00   0.06
  15   1    -0.19   0.13   0.27    -0.02  -0.04   0.02    -0.05   0.02   0.06
                      4                      5                      6
                        a                      a                      a 
 Frequencies --   612.9298               803.1460               840.4350
 Red. masses --     8.9760                 2.6072                 4.5247
 Frc consts  --     0.0000                 0.0000                 0.0000
 IR Inten    --     0.0179                 0.0169                 0.0122
 Raman Activ --     0.0000                 0.0000                 0.0000
 Depolar     --     0.0000                 0.0000                 0.0000
 Atom AN      X      Y      Z        X      Y      Z        X      Y      Z
   1   6     0.13   0.40  -0.13     0.05   0.02   0.14     0.08   0.18   0.19
   2   6     0.26  -0.04  -0.07     0.08  -0.06  -0.08     0.18   0.03   0.16
   3   6     0.17  -0.13   0.07    -0.09  -0.01  -0.12     0.12  -0.16  -0.10
   4   6    -0.16  -0.37   0.14    -0.02   0.06   0.09    -0.04  -0.18  -0.21
   5   6    -0.45   0.16  -0.00     0.02   0.10   0.25    -0.24   0.08  -0.04
   6   1     0.02   0.02   0.09     0.03   0.23  -0.24     0.21   0.14  -0.23
   7   1     0.14   0.21   0.00    -0.12  -0.30  -0.07    -0.24  -0.17  -0.05
   8   1     0.18  -0.08   0.00    -0.03  -0.10  -0.02    -0.19   0.17  -0.01
   9   1    -0.07  -0.05   0.08     0.08   0.04   0.01     0.11  -0.10  -0.20
  10   1     0.14  -0.07   0.01    -0.09  -0.09  -0.02    -0.20   0.01  -0.01
  11   1    -0.02   0.09  -0.06    -0.01   0.06   0.05     0.10  -0.01   0.15
  12   1     0.03  -0.02  -0.10     0.14   0.15  -0.19     0.04  -0.23   0.27
  13   1    -0.03  -0.26   0.01    -0.09  -0.25  -0.05    -0.07   0.32   0.02
  14   1    -0.15   0.00  -0.00    -0.40   0.09  -0.24     0.02   0.13   0.00
  15   1    -0.09   0.08  -0.02     0.37  -0.19  -0.22    -0.14  -0.08   0.03
                      7                      8                      9
                        a                      a                      a 
 Frequencies --   876.5338               954.5660               965.4901
 Red. masses --     6.0422                 9.3142                 5.4431
 Frc consts  --     0.0000                 0.0000                 0.0000
 IR Inten    --     0.0528                 0.0190                 0.0185
 Raman Activ --     0.0000                 0.0000                 0.0000
 Depolar     --     0.0000                 0.0000                 0.0000
 Atom AN      X      Y      Z        X      Y      Z        X      Y      Z
   1   6    -0.25  -0.02   0.00     0.14   0.43  -0.02     0.21   0.15  -0.18
   2   6    -0.10   0.30  -0.16    -0.20   0.13  -0.01    -0.23   0.04   0.09
   3   6     0.30   0.16  -0.16    -0.21  -0.01  -0.01     0.16  -0.14   0.08
   4   6     0.18  -0.20  -0.01    -0.15  -0.38   0.02    -0.01   0.26  -0.18
   5   6    -0.09  -0.19   0.10     0.49  -0.18   0.02    -0.11  -0.19   0.20
   6   1    -0.07  -0.06   0.06    -0.02   0.24  -0.09     0.03   0.01   0.02
   7   1     0.05  -0.00   0.02     0.00   0.01  -0.04     0.23   0.00  -0.03
   8   1     0.13  -0.26   0.02    -0.00  -0.02   0.01     0.12   0.14   0.04
   9   1    -0.14   0.20   0.28    -0.17   0.01   0.08    -0.31  -0.18   0.00
  10   1    -0.30  -0.13  -0.01     0.01   0.01  -0.01    -0.03   0.18   0.02
  11   1     0.22   0.10   0.33    -0.12   0.06  -0.09     0.15  -0.39   0.02
  12   1     0.02  -0.12   0.11    -0.18  -0.16   0.09     0.05   0.04   0.00
  13   1    -0.06   0.07   0.01    -0.02   0.01   0.04    -0.18   0.11  -0.06
  14   1    -0.05   0.01  -0.02     0.14   0.01  -0.02    -0.21  -0.14  -0.03
  15   1     0.04  -0.02  -0.02     0.12  -0.12   0.01     0.07  -0.22  -0.03
                     10                     11                     12
                        a                      a                      a 
 Frequencies --   980.4219              1000.1941              1030.3097
 Red. masses --     7.4965                 4.6306                 3.6033
 Frc consts  --     0.0000                 0.0000                 0.0000
 IR Inten    --     0.0144                 0.0158                 0.0159
 Raman Activ --     0.0000                 0.0000                 0.0000
 Depolar     --     0.0000                 0.0000                 0.0000
 Atom AN      X      Y      Z        X      Y      Z        X      Y      Z
   1   6    -0.20   0.08   0.04     0.22   0.16   0.13     0.04   0.09  -0.16
   2   6     0.12  -0.43  -0.12    -0.20   0.06  -0.04    -0.05  -0.10   0.23
   3   6     0.38   0.25   0.16     0.16  -0.12  -0.01     0.07   0.09  -0.23
   4   6    -0.22   0.13  -0.08    -0.06   0.28   0.09    -0.06  -0.06   0.18
   5   6     0.11  -0.07   0.01    -0.08  -0.15  -0.18     0.17  -0.05  -0.01
   6   1    -0.23   0.16   0.00     0.30   0.01  -0.14     0.12  -0.15   0.06
   7   1    -0.07  -0.02  -0.00    -0.16  -0.05  -0.02    -0.16   0.30   0.02
   8   1    -0.01  -0.06  -0.04    -0.23  -0.26  -0.00    -0.29   0.07   0.01
   9   1    -0.12  -0.28  -0.12    -0.06   0.08   0.10     0.05  -0.12  -0.16
  10   1     0.02   0.04   0.05     0.07  -0.37   0.01    -0.27   0.05  -0.04
  11   1     0.09   0.24   0.13     0.08  -0.03   0.07     0.10   0.07   0.18
  12   1    -0.32   0.04  -0.05    -0.20   0.18  -0.18     0.13   0.06  -0.07
  13   1    -0.06   0.06  -0.02     0.15  -0.13   0.00    -0.29  -0.17  -0.03
  14   1     0.03   0.03  -0.01     0.12  -0.13   0.08    -0.06  -0.33   0.05
  15   1     0.00  -0.09   0.01    -0.20  -0.07   0.09     0.12   0.30  -0.03
                     13                     14                     15
                        a                      a                      a 
 Frequencies --  1101.2667              1125.8848              1163.3958
 Red. masses --     4.5812                 8.3144                 5.8716
 Frc consts  --     0.0000                 0.0000                 0.0000
 IR Inten    --     0.0106                 0.0194                 0.0004
 Raman Activ --     0.0000                 0.0000                 0.0000
 Depolar     --     0.0000                 0.0000                 0.0000
 Atom AN      X      Y      Z        X      Y      Z        X      Y      Z
   1   6    -0.23   0.06  -0.02     0.24  -0.34   0.00     0.26   0.04  -0.04
   2   6     0.24   0.17   0.04    -0.21   0.05  -0.00    -0.21  -0.27  -0.06
   3   6     0.10  -0.28  -0.02     0.18  -0.04   0.03    -0.05   0.35   0.03
   4   6    -0.25   0.06  -0.01    -0.34  -0.16  -0.04     0.22  -0.18   0.07
   5   6     0.15  -0.02   0.01     0.14   0.50  -0.00    -0.20   0.04  -0.00
   6   1    -0.23   0.10   0.05     0.19  -0.18  -0.00    -0.14   0.19  -0.03
   7   1    -0.08   0.11   0.02     0.12  -0.09   0.01     0.09  -0.06  -0.03
   8   1     0.09   0.10   0.01    -0.00  -0.05   0.01    -0.19  -0.15  -0.03
   9   1     0.38   0.26   0.01    -0.16  -0.02   0.05     0.30   0.18  -0.01
  10   1     0.02  -0.13  -0.00    -0.02  -0.03   0.01    -0.07   0.25   0.01
  11   1     0.16  -0.45   0.03     0.09  -0.07   0.06     0.13  -0.33   0.02
  12   1    -0.29   0.04  -0.07    -0.25  -0.06   0.00    -0.26  -0.06   0.01
  13   1    -0.14  -0.03  -0.02    -0.12   0.02   0.00     0.14   0.00   0.04
  14   1     0.01  -0.02  -0.01     0.00   0.23  -0.06    -0.07  -0.06   0.02
  15   1     0.05   0.04  -0.00     0.13   0.19  -0.07    -0.02   0.11  -0.02
                     16                     17                     18
                        a                      a                      a 
 Frequencies --  1191.0047              1206.1801              1218.7218
 Red. masses --     4.8960                 4.1488                 4.8242
 Frc consts  --     0.0000                 0.0000                 0.0000
 IR Inten    --     0.0311                 0.0273                 0.0174
 Raman Activ --     0.0000                 0.0000                 0.0000
 Depolar     --     0.0000                 0.0000                 0.0000
 Atom AN      X      Y      Z        X      Y      Z        X      Y      Z
   1   6    -0.07   0.08  -0.27    -0.16   0.10   0.23     0.00  -0.02  -0.20
   2   6     0.04  -0.04   0.09     0.21  -0.03  -0.18    -0.00  -0.00   0.29
   3   6    -0.07  -0.01   0.05    -0.18   0.04  -0.13    -0.02   0.02  -0.36
   4   6     0.13   0.02  -0.25     0.17   0.01   0.14     0.04   0.01   0.29
   5   6    -0.04  -0.05   0.41    -0.04  -0.13   0.02    -0.03   0.01  -0.01
   6   1     0.21  -0.27   0.07     0.34  -0.15  -0.07    -0.11  -0.02   0.06
   7   1    -0.07   0.27  -0.01    -0.15  -0.04   0.03     0.23  -0.02  -0.02
   8   1    -0.21  -0.08  -0.00     0.27   0.07  -0.03    -0.01   0.22   0.05
   9   1     0.12   0.03  -0.05    -0.25  -0.20  -0.01    -0.02  -0.13  -0.11
  10   1     0.11  -0.21   0.01    -0.12   0.21  -0.04    -0.19  -0.08  -0.08
  11   1    -0.08   0.12  -0.05     0.04  -0.26  -0.04     0.08   0.01   0.11
  12   1    -0.32  -0.08   0.04    -0.34   0.04  -0.08    -0.16   0.09  -0.10
  13   1     0.25   0.16   0.00     0.08  -0.05   0.03     0.22  -0.16   0.07
  14   1    -0.19   0.10  -0.06     0.04   0.09  -0.01     0.15   0.40  -0.05
  15   1     0.20  -0.06  -0.06     0.08   0.29  -0.04    -0.12  -0.34   0.05
                     19                     20                     21
                        a                      a                      a 
 Frequencies --  1239.3271              1296.7428              1307.7527
 Red. masses --     2.6829                 4.0535                 2.9412
 Frc consts  --     0.0000                 0.0000                 0.0000
 IR Inten    --     0.0274                 0.0126                 0.0250
 Raman Activ --     0.0000                 0.0000                 0.0000
 Depolar     --     0.0000                 0.0000                 0.0000
 Atom AN      X      Y      Z        X      Y      Z        X      Y      Z
   1   6    -0.05   0.05  -0.10    -0.14   0.12   0.04     0.08  -0.16   0.04
   2   6    -0.02  -0.11  -0.22    -0.24  -0.14  -0.03    -0.00   0.05  -0.10
   3   6     0.01   0.13   0.17     0.11  -0.27  -0.01     0.03   0.04  -0.11
   4   6    -0.07  -0.03   0.13     0.20   0.02   0.05    -0.11  -0.08   0.01
   5   6     0.08  -0.01   0.01     0.05   0.17  -0.05     0.08   0.29   0.06
   6   1     0.25  -0.21  -0.00     0.22  -0.13  -0.03    -0.07   0.02   0.03
   7   1    -0.24   0.23   0.00     0.14  -0.11  -0.01    -0.41   0.23   0.03
   8   1    -0.05  -0.18  -0.05     0.22   0.16   0.01     0.19   0.09  -0.01
   9   1     0.11   0.10   0.03     0.27   0.22   0.03    -0.11  -0.04   0.02
  10   1     0.02   0.23   0.04    -0.09   0.27  -0.01    -0.09   0.11  -0.03
  11   1     0.05  -0.21  -0.02    -0.10   0.34   0.00     0.06  -0.08   0.03
  12   1     0.25   0.02   0.02    -0.28   0.02  -0.06     0.00  -0.04   0.03
  13   1    -0.26  -0.06  -0.01    -0.19  -0.00  -0.02     0.44  -0.03   0.07
  14   1     0.14   0.38  -0.06    -0.06  -0.22   0.04    -0.17  -0.38   0.06
  15   1    -0.10  -0.40   0.06    -0.08  -0.21   0.04    -0.09  -0.35   0.06
                     22                     23                     24
                        a                      a                      a 
 Frequencies --  1323.6902              1324.6622              1325.2333
 Red. masses --     3.7233                 5.0163                 4.9750
 Frc consts  --     0.0000                 0.0000                 0.0000
 IR Inten    --     0.0112                 0.0401                 0.0414
 Raman Activ --     0.0000                 0.0000                 0.0000
 Depolar     --     0.0000                 0.0000                 0.0000
 Atom AN      X      Y      Z        X      Y      Z        X      Y      Z
   1   6    -0.13   0.01  -0.06    -0.30   0.11   0.01    -0.17   0.20   0.03
   2   6     0.23   0.21  -0.03     0.21  -0.00   0.06    -0.17  -0.21  -0.00
   3   6     0.06  -0.30   0.04    -0.14   0.28   0.02     0.12   0.11  -0.04
   4   6    -0.15   0.06   0.05     0.06  -0.12  -0.01    -0.40   0.01  -0.06
   5   6     0.05   0.01   0.01     0.14   0.28  -0.09     0.07  -0.12   0.04
   6   1    -0.03  -0.03   0.02     0.16  -0.17   0.02     0.24  -0.12  -0.04
   7   1     0.20  -0.12  -0.02     0.31  -0.25  -0.02     0.21  -0.13  -0.01
   8   1    -0.43  -0.34  -0.03    -0.15  -0.12  -0.01     0.19   0.12   0.01
   9   1    -0.07  -0.02   0.02    -0.06  -0.13  -0.07     0.22   0.11  -0.03
  10   1    -0.16   0.53  -0.00     0.09  -0.27   0.01     0.01  -0.01  -0.00
  11   1    -0.04   0.04  -0.03     0.06  -0.26  -0.02     0.10  -0.06   0.08
  12   1     0.00   0.04  -0.02    -0.00  -0.06   0.05     0.34  -0.00   0.04
  13   1     0.28  -0.03   0.05    -0.12  -0.02  -0.02     0.46  -0.00   0.06
  14   1    -0.00  -0.05   0.01    -0.07  -0.33   0.06     0.04   0.00   0.01
  15   1     0.02   0.00  -0.00    -0.09  -0.26   0.04     0.12   0.15  -0.04
                     25                     26                     27
                        a                      a                      a 
 Frequencies --  1484.0417              1488.1898              1498.2929
 Red. masses --     1.8852                 1.9280                 2.0273
 Frc consts  --     0.0000                 0.0000                 0.0000
 IR Inten    --     0.0010                 0.0184                 0.0220
 Raman Activ --     0.0000                 0.0000                 0.0000
 Depolar     --     0.0000                 0.0000                 0.0000
 Atom AN      X      Y      Z        X      Y      Z        X      Y      Z
   1   6    -0.07  -0.12   0.05     0.02   0.03  -0.02    -0.08  -0.10   0.03
   2   6    -0.05   0.07   0.04     0.10  -0.12  -0.09     0.10  -0.14  -0.07
   3   6    -0.06  -0.02  -0.04    -0.17  -0.05  -0.12     0.07   0.04   0.04
   4   6     0.02   0.13  -0.06     0.00   0.05  -0.03    -0.01  -0.11   0.05
   5   6     0.14  -0.05   0.00     0.00   0.01   0.00     0.13  -0.04   0.01
   6   1     0.10   0.18  -0.30    -0.02  -0.06   0.08     0.10   0.13  -0.24
   7   1     0.20   0.28   0.11    -0.05  -0.09  -0.03     0.19   0.21   0.08
   8   1     0.11  -0.18   0.04    -0.25   0.33  -0.07    -0.23   0.31  -0.06
   9   1     0.06  -0.08  -0.20    -0.14   0.14   0.38    -0.12   0.12   0.35
  10   1     0.15   0.06  -0.01     0.47   0.14  -0.04    -0.18  -0.09   0.02
  11   1     0.05   0.03   0.15     0.18   0.05   0.46    -0.06  -0.04  -0.19
  12   1    -0.05  -0.18   0.30    -0.03  -0.07   0.12     0.05   0.14  -0.24
  13   1     0.01  -0.34  -0.08    -0.01  -0.14  -0.04     0.02   0.27   0.06
  14   1    -0.28   0.07  -0.22    -0.00   0.01  -0.01    -0.25   0.04  -0.18
  15   1    -0.27   0.12   0.21     0.00   0.01  -0.00    -0.23   0.08   0.18
                     28                     29                     30
                        a                      a                      a 
 Frequencies --  1498.7010              1516.5852              2971.4489
 Red. masses --     2.0212                 2.0208                 1.9062
 Frc consts  --     0.0000                 0.0000                 0.0000
 IR Inten    --     0.0218                 0.0122                 0.0156
 Raman Activ --     0.0000                 0.0000                 0.0000
 Depolar     --     0.0000                 0.0000                 0.0000
 Atom AN      X      Y      Z        X      Y      Z        X      Y      Z
   1   6    -0.08  -0.12   0.05    -0.08  -0.12   0.04     0.02   0.01   0.15
   2   6    -0.03   0.07   0.03     0.05  -0.07  -0.03    -0.00   0.01  -0.08
   3   6    -0.13  -0.04  -0.07     0.08   0.03   0.04     0.02   0.00  -0.06
   4   6     0.00  -0.16   0.06     0.00   0.13  -0.05    -0.02   0.02   0.16
   5   6    -0.09   0.04   0.00    -0.18   0.06  -0.00    -0.00  -0.02  -0.15
   6   1     0.09   0.18  -0.28     0.09   0.17  -0.28    -0.11  -0.15  -0.11
   7   1     0.17   0.28   0.10     0.18   0.27   0.10     0.06   0.12  -0.44
   8   1     0.08  -0.16   0.03    -0.12   0.16  -0.03    -0.04   0.02   0.25
   9   1     0.04  -0.07  -0.15    -0.06   0.06   0.18     0.05  -0.07   0.04
  10   1     0.32   0.09  -0.02    -0.18  -0.05   0.01     0.01   0.01   0.21
  11   1     0.11   0.03   0.31    -0.06  -0.02  -0.17    -0.07  -0.02   0.02
  12   1     0.03   0.18  -0.33    -0.05  -0.15   0.26     0.01  -0.19  -0.09
  13   1    -0.03   0.37   0.08    -0.01  -0.29  -0.06     0.07   0.10  -0.48
  14   1     0.17  -0.07   0.14     0.33  -0.07   0.25    -0.20   0.11   0.28
  15   1     0.16  -0.10  -0.13     0.31  -0.15  -0.25     0.20  -0.03   0.26
                     31                     32                     33
                        a                      a                      a 
 Frequencies --  2972.1808              2984.1754              2986.3111
 Red. masses --     1.8397                 1.8945                 1.9224
 Frc consts  --     0.0000                 0.0000                 0.0000
 IR Inten    --     0.0088                 0.0316                 0.1525
 Raman Activ --     0.0000                 0.0000                 0.0000
 Depolar     --     0.0000                 0.0000                 0.0000
 Atom AN      X      Y      Z        X      Y      Z        X      Y      Z
   1   6     0.01   0.00   0.09     0.01  -0.01   0.18     0.00   0.00   0.02
   2   6    -0.01   0.03  -0.17    -0.00  -0.00   0.10     0.00   0.01  -0.15
   3   6    -0.04  -0.01   0.17     0.01   0.00  -0.09     0.02   0.00  -0.16
   4   6     0.01  -0.01  -0.09     0.02  -0.01  -0.17     0.00  -0.00  -0.01
   5   6     0.00  -0.00   0.00     0.02  -0.01  -0.02     0.00   0.03   0.17
   6   1    -0.07  -0.09  -0.06    -0.09  -0.12  -0.08    -0.01  -0.01  -0.01
   7   1     0.04   0.08  -0.27     0.07   0.15  -0.54     0.01   0.01  -0.05
   8   1    -0.07   0.06   0.56     0.04  -0.03  -0.34    -0.07   0.05   0.51
   9   1     0.10  -0.14   0.07    -0.03   0.04  -0.01     0.05  -0.08   0.03
  10   1    -0.03  -0.02  -0.57     0.01   0.01   0.30     0.03   0.02   0.56
  11   1     0.17   0.05  -0.05    -0.05  -0.01   0.01    -0.10  -0.03   0.02
  12   1    -0.01   0.11   0.05    -0.01   0.13   0.05    -0.00   0.01   0.01
  13   1    -0.04  -0.07   0.31    -0.08  -0.11   0.56    -0.01  -0.01   0.02
  14   1    -0.00   0.00   0.00    -0.05   0.03   0.07     0.22  -0.13  -0.33
  15   1    -0.01  -0.00  -0.01     0.00  -0.00  -0.00    -0.23   0.03  -0.29
                     34                     35                     36
                        a                      a                      a 
 Frequencies --  2999.0041              3000.9579              3005.6622
 Red. masses --     1.6154                 1.5796                 1.9179
 Frc consts  --     0.0000                 0.0000                 0.0000
 IR Inten    --     0.3189                 0.0072                 0.4669
 Raman Activ --     0.0000                 0.0000                 0.0000
 Depolar     --     0.0000                 0.0000                 0.0000
 Atom AN      X      Y      Z        X      Y      Z        X      Y      Z
   1   6    -0.03  -0.05   0.07     0.07   0.09   0.05     0.01  -0.00   0.10
   2   6    -0.06   0.08   0.03     0.03  -0.04   0.02     0.06  -0.09   0.10
   3   6     0.09   0.03   0.04     0.04   0.01  -0.01    -0.13  -0.04   0.09
   4   6    -0.01  -0.06   0.07     0.00  -0.11  -0.04    -0.01   0.01   0.10
   5   6    -0.00   0.02   0.13    -0.13   0.04  -0.01    -0.00   0.02   0.12
   6   1     0.07   0.09   0.10    -0.24  -0.31  -0.29    -0.06  -0.08  -0.06
   7   1     0.04   0.09  -0.36    -0.00  -0.02   0.13     0.04   0.08  -0.30
   8   1     0.03  -0.01  -0.30     0.00  -0.00   0.02     0.03  -0.02  -0.12
   9   1     0.18  -0.26   0.19    -0.10   0.15  -0.10    -0.24   0.34  -0.22
  10   1     0.00  -0.01  -0.30     0.00   0.00  -0.03    -0.02  -0.01  -0.08
  11   1    -0.34  -0.11   0.16    -0.14  -0.04   0.06     0.50   0.16  -0.22
  12   1    -0.01   0.17   0.11    -0.03   0.38   0.23     0.01  -0.11  -0.06
  13   1     0.05   0.06  -0.34     0.01   0.00  -0.10     0.04   0.06  -0.27
  14   1     0.16  -0.09  -0.24     0.21  -0.13  -0.36     0.16  -0.09  -0.23
  15   1    -0.15   0.02  -0.20     0.27  -0.02   0.40    -0.15   0.02  -0.19
                     37                     38                     39
                        a                      a                      a 
 Frequencies --  3009.1603              3010.5254              3013.2894
 Red. masses --     1.5883                 1.6555                 1.5540
 Frc consts  --     0.0000                 0.0000                 0.0000
 IR Inten    --     0.3721                 0.4043                 0.0946
 Raman Activ --     0.0000                 0.0000                 0.0000
 Depolar     --     0.0000                 0.0000                 0.0000
 Atom AN      X      Y      Z        X      Y      Z        X      Y      Z
   1   6    -0.01  -0.00  -0.02    -0.08  -0.11  -0.06    -0.07  -0.09  -0.02
   2   6    -0.09   0.12  -0.03     0.02  -0.04  -0.02     0.04  -0.05   0.01
   3   6    -0.13  -0.04   0.01    -0.05  -0.02  -0.02     0.06   0.02  -0.00
   4   6    -0.00   0.02   0.00     0.01  -0.15  -0.06    -0.00   0.11   0.01
   5   6    -0.09   0.03  -0.01    -0.00  -0.01  -0.07    -0.12   0.04  -0.01
   6   1     0.03   0.04   0.03     0.29   0.37   0.35     0.23   0.30   0.28
   7   1    -0.00  -0.01   0.03     0.00   0.02  -0.14     0.01   0.04  -0.20
   8   1     0.01   0.00  -0.19    -0.01   0.01   0.14    -0.01   0.00   0.10
   9   1     0.31  -0.45   0.31    -0.08   0.11  -0.08    -0.12   0.18  -0.12
  10   1    -0.01   0.00   0.18     0.00   0.00   0.16     0.00  -0.00  -0.08
  11   1     0.46   0.14  -0.21     0.18   0.05  -0.09    -0.20  -0.06   0.09
  12   1     0.00  -0.06  -0.04    -0.04   0.54   0.33     0.03  -0.37  -0.23
  13   1    -0.00  -0.00   0.03     0.02   0.00  -0.14    -0.02  -0.02   0.18
  14   1     0.13  -0.08  -0.24    -0.08   0.04   0.11     0.18  -0.11  -0.32
  15   1     0.19  -0.02   0.29     0.09  -0.01   0.12     0.24  -0.02   0.36
