 Entering Gaussian System
 *********************************************
 Gaussian 98:
 frequency output generated by the xtb code
 *********************************************
                         Standard orientation:
 --------------------------------------------------------------------
  Center     Atomic     Atomic              Coordinates (Angstroms)
  Number     Number      Type              X           Y           Z
 --------------------------------------------------------------------
    1          6             0        1.574305   -0.580264    0.116972
    2          6             0        3.066461   -0.548652   -0.216629
    3          6             0        3.491038    0.847559    0.224982
    4          6             0        2.342572    1.724221   -0.271219
    5          6             0        1.080667    0.863701   -0.089939
    6          1             0        1.032039   -1.291627   -0.504468
    7          1             0        1.439434   -0.876168    1.158213
    8          1             0        3.214219   -0.654228   -1.292770
    9          1             0        3.621565   -1.339713    0.285953
   10          1             0        3.552440    0.888248    1.313879
   11          1             0        4.453723    1.148162   -0.186690
   12          1             0        2.278302    2.667185    0.269947
   13          1             0        2.491137    1.952543   -1.327710
   14          1             0        0.504220    1.197094    0.772770
   15          1             0        0.434319    0.938311   -0.963984
 --------------------------------------------------------------------
     1 basis functions        1 primitive gaussians
     1 alpha electrons        1 beta electrons
 
 Harmonic frequencies (cm**-1), IR intensities (KM/Mole),
 Raman scattering activities (A**4/amu), Raman depolarization ratios,
 reduced masses (AMU), force constants (mDyne/A) and normal coordinates:
                      1                      2                      3
                        a                      a                      a 
 Frequencies --     5.6465               252.7046               612.9298
 Red. masses --    99.0000                99.0000                99.0000
 Frc consts  --    99.0000                99.0000                99.0000
 IR Inten    --    99.0000                99.0000                99.0000
 Raman Activ --     0.0000                 0.0000                 0.0000
 Depolar     --     0.0000                 0.0000                 0.0000
 Atom AN      X      Y      Z        X      Y      Z        X      Y      Z
   1   6    -0.05  -0.06  -0.32     0.10   0.04   0.20     0.13   0.40  -0.13
   2   6     0.08   0.01   0.14    -0.04   0.14  -0.35     0.26  -0.04  -0.07
   3   6    -0.06   0.07   0.09    -0.16  -0.07   0.35     0.17  -0.13   0.07
   4   6     0.01  -0.09  -0.29     0.08  -0.11  -0.22    -0.16  -0.37   0.14
   5   6     0.02   0.08   0.38     0.04  -0.00   0.02    -0.45   0.16  -0.00
   6   1     0.04   0.10  -0.27    -0.04  -0.04   0.18     0.02   0.02   0.09
   7   1    -0.12  -0.20  -0.16     0.17   0.09   0.10     0.14   0.21   0.00
   8   1     0.12  -0.03   0.06    -0.13   0.25  -0.14     0.18  -0.08   0.00
   9   1    -0.01   0.02   0.11     0.05  -0.04  -0.30    -0.07  -0.05   0.08
  10   1    -0.09   0.06   0.03    -0.27  -0.11   0.12     0.14  -0.07   0.01
  11   1     0.01   0.01   0.08     0.03   0.02   0.32    -0.02   0.09  -0.06
  12   1     0.04   0.07  -0.25     0.02   0.05  -0.21     0.03  -0.02  -0.10
  13   1    -0.02  -0.22  -0.13     0.09  -0.20  -0.09    -0.03  -0.26   0.01
  14   1     0.23  -0.01   0.27     0.04   0.05   0.01    -0.15   0.00  -0.00
  15   1    -0.19   0.13   0.27    -0.02  -0.04   0.02    -0.09   0.08  -0.02
                      4                      5                      6
                        a                      a                      a 
 Frequencies --   557.0076               803.1460               840.4350
 Red. masses --    99.0000                99.0000                99.0000
 Frc consts  --    99.0000                99.0000                99.0000
 IR Inten    --    99.0000                99.0000                99.0000
 Raman Activ --     0.0000                 0.0000                 0.0000
 Depolar     --     0.0000                 0.0000                 0.0000
 Atom AN      X      Y      Z        X      Y      Z        X      Y      Z
   1   6     0.23   0.11  -0.01     0.05   0.02   0.14     0.08   0.18   0.19
   2   6     0.20  -0.34  -0.09     0.08  -0.06  -0.08     0.18   0.03   0.16
   3   6    -0.38  -0.16  -0.13    -0.09  -0.01  -0.12     0.12  -0.16  -0.10
   4   6    -0.10   0.26  -0.05    -0.02   0.06   0.09    -0.04  -0.18  -0.21
   5   6     0.07   0.14   0.04     0.02   0.10   0.25    -0.24   0.08  -0.04
   6   1    -0.04   0.01   0.11     0.03   0.23  -0.24     0.21   0.14  -0.23
   7   1     0.15   0.12   0.03    -0.12  -0.30  -0.07    -0.24  -0.17  -0.05
   8   1     0.18  -0.30   0.02    -0.03  -0.10  -0.02    -0.19   0.17  -0.01
   9   1     0.02   0.02   0.20     0.08   0.04   0.01     0.11  -0.10  -0.20
  10   1    -0.34  -0.13  -0.02    -0.09  -0.09  -0.02    -0.20   0.01  -0.01
  11   1    -0.02   0.02   0.21    -0.01   0.06   0.05     0.10  -0.01   0.15
  12   1     0.04  -0.01   0.13     0.14   0.15  -0.19     0.04  -0.23   0.27
  13   1    -0.06   0.22   0.02    -0.09  -0.25  -0.05    -0.07   0.32   0.02
  14   1     0.07  -0.00   0.06    -0.40   0.09  -0.24     0.02   0.13   0.00
  15   1    -0.05   0.02   0.06     0.37  -0.19  -0.22    -0.14  -0.08   0.03
                      7                      8                      9
                        a                      a                      a 
 Frequencies --   876.5338               954.5660              1030.3097
 Red. masses --    99.0000                99.0000                99.0000
 Frc consts  --    99.0000                99.0000                99.0000
 IR Inten    --    99.0000                99.0000                99.0000
 Raman Activ --     0.0000                 0.0000                 0.0000
 Depolar     --     0.0000                 0.0000                 0.0000
 Atom AN      X      Y      Z        X      Y      Z        X      Y      Z
   1   6    -0.25  -0.02   0.00     0.14   0.43  -0.02     0.04   0.09  -0.16
   2   6    -0.10   0.30  -0.16    -0.20   0.13  -0.01    -0.05  -0.10   0.23
   3   6     0.30   0.16  -0.16    -0.21  -0.01  -0.01     0.07   0.09  -0.23
   4   6     0.18  -0.20  -0.01    -0.15  -0.38   0.02    -0.06  -0.06   0.18
   5   6    -0.09  -0.19   0.10     0.49  -0.18   0.02     0.17  -0.05  -0.01
   6   1    -0.07  -0.06   0.06    -0.02   0.24  -0.09     0.12  -0.15   0.06
   7   1     0.05  -0.00   0.02     0.00   0.01  -0.04    -0.16   0.30   0.02
   8   1     0.13  -0.26   0.02    -0.00  -0.02   0.01    -0.29   0.07   0.01
   9   1    -0.14   0.20   0.28    -0.17   0.01   0.08     0.05  -0.12  -0.16
  10   1    -0.30  -0.13  -0.01     0.01   0.01  -0.01    -0.27   0.05  -0.04
  11   1     0.22   0.10   0.33    -0.12   0.06  -0.09     0.10   0.07   0.18
  12   1     0.02  -0.12   0.11    -0.18  -0.16   0.09     0.13   0.06  -0.07
  13   1    -0.06   0.07   0.01    -0.02   0.01   0.04    -0.29  -0.17  -0.03
  14   1    -0.05   0.01  -0.02     0.14   0.01  -0.02    -0.06  -0.33   0.05
  15   1     0.04  -0.02  -0.02     0.12  -0.12   0.01     0.12   0.30  -0.03
                     10                     11                     12
                        a                      a                      a 
 Frequencies --  1484.0417              1498.7010               980.4219
 Red. masses --    99.0000                99.0000                99.0000
 Frc consts  --    99.0000                99.0000                99.0000
 IR Inten    --    99.0000                99.0000                99.0000
 Raman Activ --     0.0000                 0.0000                 0.0000
 Depolar     --     0.0000                 0.0000                 0.0000
 Atom AN      X      Y      Z        X      Y      Z        X      Y      Z
   1   6    -0.07  -0.12   0.05    -0.08  -0.12   0.05    -0.20   0.08   0.04
   2   6    -0.05   0.07   0.04    -0.03   0.07   0.03     0.12  -0.43  -0.12
   3   6    -0.06  -0.02  -0.04    -0.13  -0.04  -0.07     0.38   0.25   0.16
   4   6     0.02   0.13  -0.06     0.00  -0.16   0.06    -0.22   0.13  -0.08
   5   6     0.14  -0.05   0.00    -0.09   0.04   0.00     0.11  -0.07   0.01
   6   1     0.10   0.18  -0.30     0.09   0.18  -0.28    -0.23   0.16   0.00
   7   1     0.20   0.28   0.11     0.17   0.28   0.10    -0.07  -0.02  -0.00
   8   1     0.11  -0.18   0.04     0.08  -0.16   0.03    -0.01  -0.06  -0.04
   9   1     0.06  -0.08  -0.20     0.04  -0.07  -0.15    -0.12  -0.28  -0.12
  10   1     0.15   0.06  -0.01     0.32   0.09  -0.02     0.02   0.04   0.05
  11   1     0.05   0.03   0.15     0.11   0.03   0.31     0.09   0.24   0.13
  12   1    -0.05  -0.18   0.30     0.03   0.18  -0.33    -0.32   0.04  -0.05
  13   1     0.01  -0.34  -0.08    -0.03   0.37   0.08    -0.06   0.06  -0.02
  14   1    -0.28   0.07  -0.22     0.17  -0.07   0.14     0.03   0.03  -0.01
  15   1    -0.27   0.12   0.21     0.16  -0.10  -0.13     0.00  -0.09   0.01
                     13                     14                     15
                        a                      a                      a 
 Frequencies --   965.4901              1516.5852              1488.1898
 Red. masses --    99.0000                99.0000                99.0000
 Frc consts  --    99.0000                99.0000                99.0000
 IR Inten    --    99.0000                99.0000                99.0000
 Raman Activ --     0.0000                 0.0000                 0.0000
 Depolar     --     0.0000                 0.0000                 0.0000
 Atom AN      X      Y      Z        X      Y      Z        X      Y      Z
   1   6     0.21   0.15  -0.18    -0.08  -0.12   0.04     0.02   0.03  -0.02
   2   6    -0.23   0.04   0.09     0.05  -0.07  -0.03     0.10  -0.12  -0.09
   3   6     0.16  -0.14   0.08     0.08   0.03   0.04    -0.17  -0.05  -0.12
   4   6    -0.01   0.26  -0.18     0.00   0.13  -0.05     0.00   0.05  -0.03
   5   6    -0.11  -0.19   0.20    -0.18   0.06  -0.00     0.00   0.01   0.00
   6   1     0.03   0.01   0.02     0.09   0.17  -0.28    -0.02  -0.06   0.08
   7   1     0.23   0.00  -0.03     0.18   0.27   0.10    -0.05  -0.09  -0.03
   8   1     0.12   0.14   0.04    -0.12   0.16  -0.03    -0.25   0.33  -0.07
   9   1    -0.31  -0.18   0.00    -0.06   0.06   0.18    -0.14   0.14   0.38
  10   1    -0.03   0.18   0.02    -0.18  -0.05   0.01     0.47   0.14  -0.04
  11   1     0.15  -0.39   0.02    -0.06  -0.02  -0.17     0.18   0.05   0.46
  12   1     0.05   0.04   0.00    -0.05  -0.15   0.26    -0.03  -0.07   0.12
  13   1    -0.18   0.11  -0.06    -0.01  -0.29  -0.06    -0.01  -0.14  -0.04
  14   1    -0.21  -0.14  -0.03     0.33  -0.07   0.25    -0.00   0.01  -0.01
  15   1     0.07  -0.22  -0.03     0.31  -0.15  -0.25     0.00   0.01  -0.00
                     16                     17                     18
                        a                      a                      a 
 Frequencies --  1000.1941              1218.7218              1191.0047
 Red. masses --    99.0000                99.0000                99.0000
 Frc consts  --    99.0000                99.0000                99.0000
 IR Inten    --    99.0000                99.0000                99.0000
 Raman Activ --     0.0000                 0.0000                 0.0000
 Depolar     --     0.0000                 0.0000                 0.0000
 Atom AN      X      Y      Z        X      Y      Z        X      Y      Z
   1   6     0.22   0.16   0.13     0.00  -0.02  -0.20    -0.07   0.08  -0.27
   2   6    -0.20   0.06  -0.04    -0.00  -0.00   0.29     0.04  -0.04   0.09
   3   6     0.16  -0.12  -0.01    -0.02   0.02  -0.36    -0.07  -0.01   0.05
   4   6    -0.06   0.28   0.09     0.04   0.01   0.29     0.13   0.02  -0.25
   5   6    -0.08  -0.15  -0.18    -0.03   0.01  -0.01    -0.04  -0.05   0.41
   6   1     0.30   0.01  -0.14    -0.11  -0.02   0.06     0.21  -0.27   0.07
   7   1    -0.16  -0.05  -0.02     0.23  -0.02  -0.02    -0.07   0.27  -0.01
   8   1    -0.23  -0.26  -0.00    -0.01   0.22   0.05    -0.21  -0.08  -0.00
   9   1    -0.06   0.08   0.10    -0.02  -0.13  -0.11     0.12   0.03  -0.05
  10   1     0.07  -0.37   0.01    -0.19  -0.08  -0.08     0.11  -0.21   0.01
  11   1     0.08  -0.03   0.07     0.08   0.01   0.11    -0.08   0.12  -0.05
  12   1    -0.20   0.18  -0.18    -0.16   0.09  -0.10    -0.32  -0.08   0.04
  13   1     0.15  -0.13   0.00     0.22  -0.16   0.07     0.25   0.16   0.00
  14   1     0.12  -0.13   0.08     0.15   0.40  -0.05    -0.19   0.10  -0.06
  15   1    -0.20  -0.07   0.09    -0.12  -0.34   0.05     0.20  -0.06  -0.06
                     19                     20                     21
                        a                      a                      a 
 Frequencies --  1498.2929              1239.3271              1125.8848
 Red. masses --    99.0000                99.0000                99.0000
 Frc consts  --    99.0000                99.0000                99.0000
 IR Inten    --    99.0000                99.0000                99.0000
 Raman Activ --     0.0000                 0.0000                 0.0000
 Depolar     --     0.0000                 0.0000                 0.0000
 Atom AN      X      Y      Z        X      Y      Z        X      Y      Z
   1   6    -0.08  -0.10   0.03    -0.05   0.05  -0.10     0.24  -0.34   0.00
   2   6     0.10  -0.14  -0.07    -0.02  -0.11  -0.22    -0.21   0.05  -0.00
   3   6     0.07   0.04   0.04     0.01   0.13   0.17     0.18  -0.04   0.03
   4   6    -0.01  -0.11   0.05    -0.07  -0.03   0.13    -0.34  -0.16  -0.04
   5   6     0.13  -0.04   0.01     0.08  -0.01   0.01     0.14   0.50  -0.00
   6   1     0.10   0.13  -0.24     0.25  -0.21  -0.00     0.19  -0.18  -0.00
   7   1     0.19   0.21   0.08    -0.24   0.23   0.00     0.12  -0.09   0.01
   8   1    -0.23   0.31  -0.06    -0.05  -0.18  -0.05    -0.00  -0.05   0.01
   9   1    -0.12   0.12   0.35     0.11   0.10   0.03    -0.16  -0.02   0.05
  10   1    -0.18  -0.09   0.02     0.02   0.23   0.04    -0.02  -0.03   0.01
  11   1    -0.06  -0.04  -0.19     0.05  -0.21  -0.02     0.09  -0.07   0.06
  12   1     0.05   0.14  -0.24     0.25   0.02   0.02    -0.25  -0.06   0.00
  13   1     0.02   0.27   0.06    -0.26  -0.06  -0.01    -0.12   0.02   0.00
  14   1    -0.25   0.04  -0.18     0.14   0.38  -0.06     0.00   0.23  -0.06
  15   1    -0.23   0.08   0.18    -0.10  -0.40   0.06     0.13   0.19  -0.07
                     22                     23                     24
                        a                      a                      a 
 Frequencies --  1101.2667              1163.3958              1206.1801
 Red. masses --    99.0000                99.0000                99.0000
 Frc consts  --    99.0000                99.0000                99.0000
 IR Inten    --    99.0000                99.0000                99.0000
 Raman Activ --     0.0000                 0.0000                 0.0000
 Depolar     --     0.0000                 0.0000                 0.0000
 Atom AN      X      Y      Z        X      Y      Z        X      Y      Z
   1   6    -0.23   0.06  -0.02     0.26   0.04  -0.04    -0.16   0.10   0.23
   2   6     0.24   0.17   0.04    -0.21  -0.27  -0.06     0.21  -0.03  -0.18
   3   6     0.10  -0.28  -0.02    -0.05   0.35   0.03    -0.18   0.04  -0.13
   4   6    -0.25   0.06  -0.01     0.22  -0.18   0.07     0.17   0.01   0.14
   5   6     0.15  -0.02   0.01    -0.20   0.04  -0.00    -0.04  -0.13   0.02
   6   1    -0.23   0.10   0.05    -0.14   0.19  -0.03     0.34  -0.15  -0.07
   7   1    -0.08   0.11   0.02     0.09  -0.06  -0.03    -0.15  -0.04   0.03
   8   1     0.09   0.10   0.01    -0.19  -0.15  -0.03     0.27   0.07  -0.03
   9   1     0.38   0.26   0.01     0.30   0.18  -0.01    -0.25  -0.20  -0.01
  10   1     0.02  -0.13  -0.00    -0.07   0.25   0.01    -0.12   0.21  -0.04
  11   1     0.16  -0.45   0.03     0.13  -0.33   0.02     0.04  -0.26  -0.04
  12   1    -0.29   0.04  -0.07    -0.26  -0.06   0.01    -0.34   0.04  -0.08
  13   1    -0.14  -0.03  -0.02     0.14   0.00   0.04     0.08  -0.05   0.03
  14   1     0.01  -0.02  -0.01    -0.07  -0.06   0.02     0.04   0.09  -0.01
  15   1     0.05   0.04  -0.00    -0.02   0.11  -0.02     0.08   0.29  -0.04
                     25                     26                     27
                        a                      a                      a 
 Frequencies --  1307.7527              1296.7428              1325.2333
 Red. masses --    99.0000                99.0000                99.0000
 Frc consts  --    99.0000                99.0000                99.0000
 IR Inten    --    99.0000                99.0000                99.0000
 Raman Activ --     0.0000                 0.0000                 0.0000
 Depolar     --     0.0000                 0.0000                 0.0000
 Atom AN      X      Y      Z        X      Y      Z        X      Y      Z
   1   6     0.08  -0.16   0.04    -0.14   0.12   0.04    -0.17   0.20   0.03
   2   6    -0.00   0.05  -0.10    -0.24  -0.14  -0.03    -0.17  -0.21  -0.00
   3   6     0.03   0.04  -0.11     0.11  -0.27  -0.01     0.12   0.11  -0.04
   4   6    -0.11  -0.08   0.01     0.20   0.02   0.05    -0.40   0.01  -0.06
   5   6     0.08   0.29   0.06     0.05   0.17  -0.05     0.07  -0.12   0.04
   6   1    -0.07   0.02   0.03     0.22  -0.13  -0.03     0.24  -0.12  -0.04
   7   1    -0.41   0.23   0.03     0.14  -0.11  -0.01     0.21  -0.13  -0.01
   8   1     0.19   0.09  -0.01     0.22   0.16   0.01     0.19   0.12   0.01
   9   1    -0.11  -0.04   0.02     0.27   0.22   0.03     0.22   0.11  -0.03
  10   1    -0.09   0.11  -0.03    -0.09   0.27  -0.01     0.01  -0.01  -0.00
  11   1     0.06  -0.08   0.03    -0.10   0.34   0.00     0.10  -0.06   0.08
  12   1     0.00  -0.04   0.03    -0.28   0.02  -0.06     0.34  -0.00   0.04
  13   1     0.44  -0.03   0.07    -0.19  -0.00  -0.02     0.46  -0.00   0.06
  14   1    -0.17  -0.38   0.06    -0.06  -0.22   0.04     0.04   0.00   0.01
  15   1    -0.09  -0.35   0.06    -0.08  -0.21   0.04     0.12   0.15  -0.04
                     28                     29                     30
                        a                      a                      a 
 Frequencies --  1323.6902              1324.6622              2972.1808
 Red. masses --    99.0000                99.0000                99.0000
 Frc consts  --    99.0000                99.0000                99.0000
 IR Inten    --    99.0000                99.0000                99.0000
 Raman Activ --     0.0000                 0.0000                 0.0000
 Depolar     --     0.0000                 0.0000                 0.0000
 Atom AN      X      Y      Z        X      Y      Z        X      Y      Z
   1   6    -0.13   0.01  -0.06    -0.30   0.11   0.01     0.01   0.00   0.09
   2   6     0.23   0.21  -0.03     0.21  -0.00   0.06    -0.01   0.03  -0.17
   3   6     0.06  -0.30   0.04    -0.14   0.28   0.02    -0.04  -0.01   0.17
   4   6    -0.15   0.06   0.05     0.06  -0.12  -0.01     0.01  -0.01  -0.09
   5   6     0.05   0.01   0.01     0.14   0.28  -0.09     0.00  -0.00   0.00
   6   1    -0.03  -0.03   0.02     0.16  -0.17   0.02    -0.07  -0.09  -0.06
   7   1     0.20  -0.12  -0.02     0.31  -0.25  -0.02     0.04   0.08  -0.27
   8   1    -0.43  -0.34  -0.03    -0.15  -0.12  -0.01    -0.07   0.06   0.56
   9   1    -0.07  -0.02   0.02    -0.06  -0.13  -0.07     0.10  -0.14   0.07
  10   1    -0.16   0.53  -0.00     0.09  -0.27   0.01    -0.03  -0.02  -0.57
  11   1    -0.04   0.04  -0.03     0.06  -0.26  -0.02     0.17   0.05  -0.05
  12   1     0.00   0.04  -0.02    -0.00  -0.06   0.05    -0.01   0.11   0.05
  13   1     0.28  -0.03   0.05    -0.12  -0.02  -0.02    -0.04  -0.07   0.31
  14   1    -0.00  -0.05   0.01    -0.07  -0.33   0.06    -0.00   0.00   0.00
  15   1     0.02   0.00  -0.00    -0.09  -0.26   0.04    -0.01  -0.00  -0.01
                     31                     32                     33
                        a                      a                      a 
 Frequencies --  2984.1754              2971.4489              2986.3111
 Red. masses --    99.0000                99.0000                99.0000
 Frc consts  --    99.0000                99.0000                99.0000
 IR Inten    --    99.0000                99.0000                99.0000
 Raman Activ --     0.0000                 0.0000                 0.0000
 Depolar     --     0.0000                 0.0000                 0.0000
 Atom AN      X      Y      Z        X      Y      Z        X      Y      Z
   1   6     0.01  -0.01   0.18     0.02   0.01   0.15     0.00   0.00   0.02
   2   6    -0.00  -0.00   0.10    -0.00   0.01  -0.08     0.00   0.01  -0.15
   3   6     0.01   0.00  -0.09     0.02   0.00  -0.06     0.02   0.00  -0.16
   4   6     0.02  -0.01  -0.17    -0.02   0.02   0.16     0.00  -0.00  -0.01
   5   6     0.02  -0.01  -0.02    -0.00  -0.02  -0.15     0.00   0.03   0.17
   6   1    -0.09  -0.12  -0.08    -0.11  -0.15  -0.11    -0.01  -0.01  -0.01
   7   1     0.07   0.15  -0.54     0.06   0.12  -0.44     0.01   0.01  -0.05
   8   1     0.04  -0.03  -0.34    -0.04   0.02   0.25    -0.07   0.05   0.51
   9   1    -0.03   0.04  -0.01     0.05  -0.07   0.04     0.05  -0.08   0.03
  10   1     0.01   0.01   0.30     0.01   0.01   0.21     0.03   0.02   0.56
  11   1    -0.05  -0.01   0.01    -0.07  -0.02   0.02    -0.10  -0.03   0.02
  12   1    -0.01   0.13   0.05     0.01  -0.19  -0.09    -0.00   0.01   0.01
  13   1    -0.08  -0.11   0.56     0.07   0.10  -0.48    -0.01  -0.01   0.02
  14   1    -0.05   0.03   0.07    -0.20   0.11   0.28     0.22  -0.13  -0.33
  15   1     0.00  -0.00  -0.00     0.20  -0.03   0.26    -0.23   0.03  -0.29
                     34                     35                     36
                        a                      a                      a 
 Frequencies --  3009.1603              3005.6622              3000.9579
 Red. masses --    99.0000                99.0000                99.0000
 Frc consts  --    99.0000                99.0000                99.0000
 IR Inten    --    99.0000                99.0000                99.0000
 Raman Activ --     0.0000                 0.0000                 0.0000
 Depolar     --     0.0000                 0.0000                 0.0000
 Atom AN      X      Y      Z        X      Y      Z        X      Y      Z
   1   6    -0.01  -0.00  -0.02     0.01  -0.00   0.10     0.07   0.09   0.05
   2   6    -0.09   0.12  -0.03     0.06  -0.09   0.10     0.03  -0.04   0.02
   3   6    -0.13  -0.04   0.01    -0.13  -0.04   0.09     0.04   0.01  -0.01
   4   6    -0.00   0.02   0.00    -0.01   0.01   0.10     0.00  -0.11  -0.04
   5   6    -0.09   0.03  -0.01    -0.00   0.02   0.12    -0.13   0.04  -0.01
   6   1     0.03   0.04   0.03    -0.06  -0.08  -0.06    -0.24  -0.31  -0.29
   7   1    -0.00  -0.01   0.03     0.04   0.08  -0.30    -0.00  -0.02   0.13
   8   1     0.01   0.00  -0.19     0.03  -0.02  -0.12     0.00  -0.00   0.02
   9   1     0.31  -0.45   0.31    -0.24   0.34  -0.22    -0.10   0.15  -0.10
  10   1    -0.01   0.00   0.18    -0.02  -0.01  -0.08     0.00   0.00  -0.03
  11   1     0.46   0.14  -0.21     0.50   0.16  -0.22    -0.14  -0.04   0.06
  12   1     0.00  -0.06  -0.04     0.01  -0.11  -0.06    -0.03   0.38   0.23
  13   1    -0.00  -0.00   0.03     0.04   0.06  -0.27     0.01   0.00  -0.10
  14   1     0.13  -0.08  -0.24     0.16  -0.09  -0.23     0.21  -0.13  -0.36
  15   1     0.19  -0.02   0.29    -0.15   0.02  -0.19     0.27  -0.02   0.40
                     37                     38                     39
                        a                      a                      a 
 Frequencies --  2999.0041              3010.5254              3013.2894
 Red. masses --    99.0000                99.0000                99.0000
 Frc consts  --    99.0000                99.0000                99.0000
 IR Inten    --    99.0000                99.0000                99.0000
 Raman Activ --     0.0000                 0.0000                 0.0000
 Depolar     --     0.0000                 0.0000                 0.0000
 Atom AN      X      Y      Z        X      Y      Z        X      Y      Z
   1   6    -0.03  -0.05   0.07    -0.08  -0.11  -0.06    -0.07  -0.09  -0.02
   2   6    -0.06   0.08   0.03     0.02  -0.04  -0.02     0.04  -0.05   0.01
   3   6     0.09   0.03   0.04    -0.05  -0.02  -0.02     0.06   0.02  -0.00
   4   6    -0.01  -0.06   0.07     0.01  -0.15  -0.06    -0.00   0.11   0.01
   5   6    -0.00   0.02   0.13    -0.00  -0.01  -0.07    -0.12   0.04  -0.01
   6   1     0.07   0.09   0.10     0.29   0.37   0.35     0.23   0.30   0.28
   7   1     0.04   0.09  -0.36     0.00   0.02  -0.14     0.01   0.04  -0.20
   8   1     0.03  -0.01  -0.30    -0.01   0.01   0.14    -0.01   0.00   0.10
   9   1     0.18  -0.26   0.19    -0.08   0.11  -0.08    -0.12   0.18  -0.12
  10   1     0.00  -0.01  -0.30     0.00   0.00   0.16     0.00  -0.00  -0.08
  11   1    -0.34  -0.11   0.16     0.18   0.05  -0.09    -0.20  -0.06   0.09
  12   1    -0.01   0.17   0.11    -0.04   0.54   0.33     0.03  -0.37  -0.23
  13   1     0.05   0.06  -0.34     0.02   0.00  -0.14    -0.02  -0.02   0.18
  14   1     0.16  -0.09  -0.24    -0.08   0.04   0.11     0.18  -0.11  -0.32
  15   1    -0.15   0.02  -0.20     0.09  -0.01   0.12     0.24  -0.02   0.36
