 
        ______________________________________
       |                                      |
       |           ==================         |
       |                 x T B                |
       |           ==================         |
       |               S. Grimme              |
       |        Universitaet Bonn, MCTC       |
       |         2015-18, Version 5.8.1       |
       |      Sun May  6 11:39:08 CEST 2018   |
       |______________________________________|
 
        This code comes without any warranty
        for non-commercial, academia use only.
        Preliminary GFN2 test version.
        Test license to: Dow Chemical Company
        Cite GFN-xTB work as:
        S. Grimme, C. Bannwarth, P. Shushkov
        JCTC, 13 (2017) 1989-2009
        for GFN2:
        C. Bannwarth, S. Ehlert, S. Grimme
        to be published.
        sTDA-xTB:
        S. Grimme  &  C. Bannwarth, JCP 145 (2016) 054103
        in the mass-spec context additionally:
        V. Asgeirsson, C.Bauer, S. Grimme, Chem. Sci. 8 (2017) 4879
 
        with help from
        P. Shushkov, G. Brandenburg, S. Dohm, J. Pisarek,
        F. März, M. Checinski, S. Ehrlich, S. Spicher, 
        P. Pracht, E. Caldeweyher, S. Ehlert, and C. Bannwarth.
 
        usage        :
        xtb <coord_file> [options]
        where <coord_file> is a valid file of TM)
        (*coord, Bohr) or xmol (*xyz, Angstroem)
        format.

        options:
        -chrg <int>   : molecular charge
        -uhf  <int>   : # of unpaired electrons(=2*S)
        -nox          : skip second, extended part in sTDA-xTB
        -pop          : do population analysis
                      : (default for -nox)
        -mowr <real>  : cut MO write above (def.3 Eh)
        -molden       : write formatted molden file
        -parx <file>  : read parameters for sTDA-xTB
                        calc (def:~/.param_stda2.xtb)
        -parv <file>  : read parameters for vTB part in
                        sTDA-xTB (def: ~/.param_stda1.xtb)
        -xtemp <real> : el. temp for xTB (def. 0 K)
        -etemp <real> : el. temp for GFN (def. 300 K)
        -fod          : calculate the FOD and write
                        molden.input file with
                        appropriate occupations
                        for plotting. Def. T=12500 K
 
        -gfn1         : use GFN-xTB
        -gfn2         : use GFN2-xTB
        -gfn2d3       : GFN2-xTB with D3 instead of D4
        -grad         : GFNn-xTB gradient
        -acc <real>   : GFNn-xTB accuracy (def. 1.0)
        -opt [level]  : optimize at GFNn-xTB
                      : level=crude,vloose,loose,
                      :       tight,vtight
        -hess         : compute Hessian at GFNn-xTB
        -ohess        : optimize and compute Hessian
        -omd          : optimize and do MD
        -siman        : conformational search
        -screen       : opt. loop over ensemble
        -gmd          : annealed MD for GMD procedure
        -modef        : vib mode following
        -gbsa [string1] [string2]
                        use GBSA implicit solvent
                        for solvent [string1] and
                        solvation state [string2]=
                        reference, bar1M (default=1M)
        additional GFN/opt/MD/siman options read from
        $XTBHOME/.xtbrc or $set in coordinate file
 
       spin and charge state information can be on:
       <.CHRG> (charge) and <.UHF> (=nalpha-nbeta)
       -uhf and -chrg override the file info.
       useful machine settings:
       setenv MKL_NUM_THREADS <NCORE_ON_YOUR_MACHINE>
       setenv OMP_STACKSIZE 500m
       limit stacksize unlimited
 
       total energies in Eh, gaps/HL energies in eV
       please read REVISION and HOWTO files carefully
          54  days left until this code expires
 =============================
  # OMP threads =           2
 =============================
 
 xtbhome directory:/home/ua25450/dftb/
 
 argument            1 :-ohess
 
 name of molecule           :
 comment line               :
 number of atoms            :     6
 number of electrons        :    14
 charge                     :  0
 spin                       : 0.0
 first test random number   :  0.3358
 
 
 -----------------------------------------
  G F N (Geometry, Frequency, Non-covalent)
        parametrization, gfnver=           3
     D4 dispersion model
 /home/ua25450/dftb/.param_gfn2.xtb
 -----------------------------------------
      method parameters     
 k(s)        :  1.8500
 k(p)        :  2.2300
 k(d)        :  2.2300
 k(f)        :  2.0000
 kEN (H0ij)  : -2.0000
 D3 a1       :  0.5200
 D3 a2       :  5.0000
 D3 s8       :  2.7000
 D3atm       :  5.0000
 alphaj      :  2.0000
 
     -------------------------
     ! NO SOLVENT MODEL USED !
     -------------------------
 
 doing EN charges ...
 sum q :  0.0000000D+00
 point charge moment (au)
     X       Y       Z   
   0.1084   0.2399  -0.0005  total (Debye):    0.669
 
            Z     q(EN)     CN     RAES       Cart. coordinates
     1  O   6.0   -0.17    1.98    1.82     0.52466    -0.96924     4.04387
     2  H   1.0    0.11    1.02    1.43     2.34396    -1.00032     4.04058
     3  C   4.0   -0.07    3.94    3.52    -0.29906     1.55745     4.04249
     4  H   1.0    0.04    0.99    1.43    -2.35514     1.50253     4.04631
     5  H   1.0    0.04    0.99    1.43     0.34797     2.57504     5.72528
     6  H   1.0    0.04    0.99    1.43     0.34181     2.57119     2.35503
 
  Z AO/shell   Hii/eV     exponent
  1     Wed Apr 25 08:07:45 CEST 2018   EN: 2.200 GM2: 0.406  GM3: 0.0800  RAES: 1.40
     1s    -10.707211    1.230000
  6     Wed Apr 25 08:07:45 CEST 2018   EN: 2.550 GM2: 0.538  GM3: 0.1500  RAES: 3.00
     2s    -13.970922    2.096432
     2p    -10.063292    1.800000
  8     Wed Apr 25 08:07:45 CEST 2018   EN: 3.440 GM2: 0.452  GM3:-0.0517  RAES: 1.80
     2s    -20.229985    2.439742
     2p    -15.503117    2.137023
 
Refinement of some symmetry elements was terminated before convergence was reached.
Some symmetry elements may remain unidentified.
Molecule has the following symmetry elements: (sigma) 
It seems to be the Cs point group
cs  symmetry found (for desy threshold:  0.10E+00) used in thermo
 no old-style atom pair restraing (fixing) potential
 
             =======================================
             |                                     |
             |        S C C  calculation           |
             |                                     |
             =======================================
 #proc     :            2
 Ncao      :           12
 Nao       :           12
 Nel       :           14
 T(el)     :   300.0
 intcut    :    25.0
 scfconv   :  0.100E-05
   qconv   :  0.100E-03
 intneglect:  0.100E-07
 broydamp  :      0.400
 Nshell    :            8
  q data taken from xtbrestart
  CAMM data taken from xtbrestart
 iter      E             dE          RMSdq      gap      omega  full diag
   1     -8.2994116 -0.829941E+01  0.510E-11   13.10       0.0  T
   2     -8.2994116  0.177636E-14  0.332E-11   13.10  100000.0  T
   3     -8.2994116 -0.355271E-14  0.112E-11   13.10  100000.0  T
speedup  1.00
cpu  time for SCC    0.01 s
wall time for SCC    0.01 s

          eigenvalues
 #    :           1          2          3          4          5          6          7          8
 occ. :        2.000      2.000      2.000      2.000      2.000      2.000      2.000      0.000
 eps  :       -18.746    -16.823    -15.445    -14.271    -14.130    -12.439    -11.316      1.786
 #    :           9         10         11         12
 occ. :        0.000      0.000      0.000      0.000
 eps  :         3.497      4.615      5.356      6.649
 

   #   Z            q   n(s)   n(p)   n(d)      C6AA      α(0)    relVol
   1   8 O     -0.435  1.705  4.729  0.000    22.043     6.352     1.222
   2   1 H      0.286  0.714  0.000  0.000     0.705     1.317     0.261
   3   6 C      0.041  1.022  2.936  0.000    20.772     6.651     0.538
   4   1 H      0.056  0.944  0.000  0.000     2.233     2.337     0.462
   5   1 H      0.025  0.975  0.000  0.000     2.649     2.545     0.504
   6   1 H      0.025  0.975  0.000  0.000     2.649     2.545     0.504

 Mol. C6AA /au*bohr^6 :        218.932849
 Mol. C8AA /au*bohr^6 :       4206.199845
 Mol. a(0) /au        :         21.747809

 
 Wiberg/Mayer (AO) data. WBOs > 0.1 written file <wbo>
 largest (>0.05) Wiberg bond orders for each atom
           total WBO             WBO to atom ...
     1  O   1.956    C    3 1.010    H    2 0.907
     2  H   0.918    O    1 0.907
     3  C   3.956    O    1 1.010    H    4 0.983    H    6 0.981    H    5 0.981
     4  H   0.997    C    3 0.983
     5  H   0.999    C    3 0.981
     6  H   0.999    C    3 0.981
 
molecular dipole:
                 x           y           z       tot (Debye)
 q only:        0.315       0.416      -0.001
   full:        0.754       0.566      -0.002       1.916
molecular quadrupole (traceless):
                xx          xy          yy          xz          yz          zz
 q only:        1.484      -0.934      -0.512       1.906       2.522      -0.972
  q+dip:        2.445      -0.536      -1.893       3.013       3.437      -0.552
   full:        2.395      -0.858      -1.384       3.013       3.437      -1.011
 SCC converged in            3  cycles
 
SCC energy    :      -8.2994116
rep           :       0.0732894
ES            :       0.0241251
AES           :       0.0020382
AXC           :       0.0002755
disp          :      -0.0011568
XB            :       0.0000000
fix           :       0.0000000
total E       :      -8.2261222
atomizationE  :       1.2635216      792.87
(atE without considerung molecular charge,
 total energy contains solvation terms)
H-L gap (eV)  :         13.1022
 
             =======================================
             |                                     |
             |    Approximate Normal Coordinate    |
             |   Rational Function Optimization    |
             |                                     |
             =======================================
Ref. for RF algo: F.Eckert, P.Pulay, H.-J.Werner
                  J.Comput.Chem. 18 (1997) 1473.
ANC idea implemented by S. Grimme in the 2000ers (unpublished)
restraining potential by S. Ehrlich.
dumping coords to <xtbopt.coord> and <xtbopt.log
 optlevel               1
 Maxcycle             200
 Maxmicro              20
 Econv         1.000000000000000E-006
 Gconv         8.000000000000000E-004
 Maxdispl       1.00000000000000     
 Hlow          1.000000000000000E-002
 S6             20.0000000000000     
 Nvar               12

generating ANC from read Hessian ...
 Shifting diagonal of input Hessian by   1.276004121476151E-003
 Lowest  eigenvalues of input Hessian
   -0.000000   -0.000000   -0.000000    0.000000    0.000000    0.000000
    0.010000    0.050288    0.092808    0.093900    0.130308    0.135636
    0.184437    0.373852    0.645945    0.711630    0.765351    0.961595
 Highest eigenvalues
    0.184437    0.373852    0.645945    0.711630    0.765351    0.961595
 
cpu  time for ANC gen    0.01 s
wall time for ANC gen    0.01 s
................................................................................
.............................. CYCLE    1 ......................................
................................................................................
  q data taken from xtbrestart
  CAMM data taken from xtbrestart
   1     -8.2994116 -0.829941E+01  0.333E-12   13.10       0.0  T
   2     -8.2994116  0.355271E-14  0.195E-12   13.10  100000.0  T
   3     -8.2994116  0.355271E-14  0.448E-13   13.10  100000.0  T
speedup  1.00
cpu  time for SCC    0.00 s
wall time for SCC    0.00 s
speedup  1.00
cpu  time for grad    0.00 s
wall time for grad    0.00 s
 E :     -8.22612222  G :  0.000067    pred/act E change:  0.000D+00 -0.524D-10
Maxdispl :   0.0003   ||displ|| :   0.0004   Lambda : -0.160D-07
Largest |displ|/coords:  0.0003 (   2)  0.0001 (   8)  0.0001 (   5)
ancopt converged in          1 cycles
total energy gain (kcal):      0.0000
================
 final structure:
================
     6
         -8.22612222
O           0.27763642573221   -0.51289753893963    2.13992410550247
H           1.24037129018530   -0.52934418952400    2.13818275206150
C          -0.15825710593786    0.82416944798416    2.13919490037402
H          -1.24628658730211    0.79510208578733    2.14121679362598
H           0.18413876914297    1.36265269726756    3.02968910261294
H           0.18087892817951    1.36061732742458    1.24622822582308
 
 Bond Distances (Angstroems)
 ---------------------------
O1-H2=0.9629         O1-C3=1.4063         H2-O1=0.9629         C3-O1=1.4063         C3-H4=1.0884         C3-H5=1.0955         
C3-H6=1.0955         H4-C3=1.0884         H5-C3=1.0955         H6-C3=1.0955         
 C  H  Rav=1.0932 sigma=0.0034  Rmin=1.0884  Rmax=1.0955     3
 O  H  Rav=0.9629 sigma=0.0000  Rmin=0.9629  Rmax=0.9629     1
 O  C  Rav=1.4063 sigma=0.0000  Rmin=1.4063  Rmax=1.4063     1
 
 selected bond angles (degree)
 --------------------
C3-O1-H2=109.03                H4-C3-O1=106.53                H5-C3-O1=111.72                H5-C3-H4=108.91                
H6-C3-O1=111.72                H6-C3-H4=108.91                H6-C3-H5=108.97                
 
 selected dihedral angles (degree)
 ---------------------------------
H4-C3-O1-H2=180.00            H5-C3-O1-H2=298.82            H6-C3-O1-H2= 61.18            
 
             =======================================
             |                                     |
             |        S C C  calculation           |
             |                                     |
             =======================================
 #proc     :            2
 Ncao      :           12
 Nao       :           12
 Nel       :           14
 T(el)     :   300.0
 intcut    :    25.0
 scfconv   :  0.100E-05
   qconv   :  0.100E-03
 intneglect:  0.100E-07
 broydamp  :      0.400
 Nshell    :            8
 iter      E             dE          RMSdq      gap      omega  full diag
   1     -8.2994116 -0.829941E+01  0.150E-13   13.10       0.0  T
   2     -8.2994116 -0.532907E-14  0.110E-13   13.10  100000.0  T
   3     -8.2994116 -0.355271E-14  0.662E-14   13.10  100000.0  T
speedup  1.00
cpu  time for SCC    0.00 s
wall time for SCC    0.00 s

          eigenvalues
 #    :           1          2          3          4          5          6          7          8
 occ. :        2.000      2.000      2.000      2.000      2.000      2.000      2.000      0.000
 eps  :       -18.746    -16.823    -15.445    -14.271    -14.130    -12.439    -11.316      1.786
 #    :           9         10         11         12
 occ. :        0.000      0.000      0.000      0.000
 eps  :         3.497      4.615      5.356      6.649
 

   #   Z            q   n(s)   n(p)   n(d)      C6AA      α(0)    relVol
   1   8 O     -0.435  1.705  4.729  0.000    22.043     6.352     1.222
   2   1 H      0.286  0.714  0.000  0.000     0.705     1.317     0.261
   3   6 C      0.041  1.022  2.936  0.000    20.772     6.651     0.538
   4   1 H      0.056  0.944  0.000  0.000     2.233     2.337     0.462
   5   1 H      0.025  0.975  0.000  0.000     2.649     2.545     0.504
   6   1 H      0.025  0.975  0.000  0.000     2.649     2.545     0.504

 Mol. C6AA /au*bohr^6 :        218.932849
 Mol. C8AA /au*bohr^6 :       4206.199845
 Mol. a(0) /au        :         21.747809

 
 Wiberg/Mayer (AO) data. WBOs > 0.1 written file <wbo>
 largest (>0.05) Wiberg bond orders for each atom
           total WBO             WBO to atom ...
     1  O   1.956    C    3 1.010    H    2 0.907
     2  H   0.918    O    1 0.907
     3  C   3.956    O    1 1.010    H    4 0.983    H    6 0.981    H    5 0.981
     4  H   0.997    C    3 0.983
     5  H   0.999    C    3 0.981
     6  H   0.999    C    3 0.981
 
molecular dipole:
                 x           y           z       tot (Debye)
 q only:        0.315       0.416      -0.001
   full:        0.498       0.566      -0.002       1.916
molecular quadrupole (traceless):
                xx          xy          yy          xz          yz          zz
 q only:        1.484      -0.934      -0.512       1.906       2.522      -0.972
  q+dip:        2.445      -0.536      -1.893       3.013       3.437      -0.552
   full:        2.395      -0.858      -1.384       3.013       3.437      -1.011
 SCC converged in            3  cycles
 
SCC energy    :      -8.2994116
rep           :       0.0732894
ES            :       0.0241251
AES           :       0.0020382
AXC           :       0.0002755
disp          :      -0.0011568
XB            :       0.0000000
fix           :       0.0000000
total E       :      -8.2261222
atomizationE  :       1.2635216      792.87
(atE without considerung molecular charge,
 total energy contains solvation terms)
H-L gap (eV)  :         13.1022
 !!!!!!!!!!!!!!!!!!!!!!!!!!!!!!!!!!!
 ! Note: the input coordinates are !
 ! NOT overwritten. The optimized  !
 ! ones are on file <xtbopt.coord> !
 ! (or on <xtbopt.xyz> if it was a !
 ! xyz file)                       !
 !!!!!!!!!!!!!!!!!!!!!!!!!!!!!!!!!!!
 
Refinement of some symmetry elements was terminated before convergence was reached.
Some symmetry elements may remain unidentified.
Molecule has the following symmetry elements: (sigma) 
It seems to be the Cs point group
cs  symmetry found (for desy threshold:  0.10E+00) used in thermo
  q data taken from xtbrestart
  CAMM data taken from xtbrestart
 
             =======================================
             |                                     |
             |         Numerical Hessian           |
             |                                     |
             =======================================
step length          :   0.00500
SCC accuracy         :   0.30000
Hessian scale factor :   1.00000
frozen atoms in %    :   0.00000    0
RMS gradient         :   0.00007
estimated CPU  time      0.00 min
estimated wall time      0.00 min
 
 writing file <hessian>.
 
 projected vibrational frequencies (cm-1)
eig.   :       -0.00    -0.00    -0.00     0.00     0.00     0.00
eig.   :      375.37  1031.26  1091.11  1140.10  1314.73  1416.62
eig.   :     1485.26  1489.84  2917.83  2937.33  3033.42  3558.19
 reduced masses (amu)
   1:  7.35   2: 13.36   3: 13.31   4: 11.38   5:  7.83   6:  5.65   7:  2.01   8:  4.24
   9: 10.84  10:  3.67  11:  4.12  12:  2.35  13:  1.53  14:  1.53  15:  1.94  16:  1.45
  17:  1.69  18:  1.88
 IR intensities (amu)
   1:  0.22   2:  0.31   3:  0.30   4:  0.19   5:  0.13   6:  0.40   7:  0.53   8:  0.66
   9:  0.92  10:  0.29  11:  0.45  12:  0.18  13:  0.02  14:  0.01  15:  0.35  16:  0.29
  17:  0.19  18:  0.14
 output can be read by thermo (or use thermo option).
 writing <g98.out> molden fake output.
 recommended (thermochemical) frequency scaling factor: 1.0
                    ==================
                    thermo calculation
                    ==================
Nvib :   12 Nimag : 0  symmetry :   cs  rot number :  1  scale factor : 1.00 sthr :  50.
 
   temp. (K)  partition function   enthalpy   heat capacity  entropy
                                   cal/mol     cal/K/mol   cal/K/mol   J/K/mol
 298.15  VIB   1.22                  277.191      2.800      1.325
         ROT  0.310E+04              888.752      2.981     18.956
         INT  0.378E+04             1165.944      5.781     20.281
         TR   0.175E+27             1481.254      4.968     36.309
         TOT                        2647.1976    10.7493    56.5903   236.7731
                     Eh         kcal/mol          kJ/mol 
ZPVE            0.496437E-01     31.1519         130.339    
H(0)-H(T)+PV    0.421858E-02     2.64720         11.0758    
H(T)            0.538623E-01     33.7991         141.415    
T*S             0.268879E-01     16.8724         70.5939    
G(T)            0.269744E-01     16.9267         70.8209    
     -8.19914786  <=== TOTAL FREE ENERGY in Eh incl. el.,ZPVE,RRHO,solv. parts
 
Eat (element increment corrected) /kcal :   516.959
         -44.302  <=== HOF(298)/kcal, to be compared to exptl. data
 
 normal mode %tage of torsion character
   1:  0.00   2:  0.00   3:  0.00   4:  0.00   5:  0.00   6:  0.00   7:  0.99   8:  0.05
   9:  0.00  10:  0.13  11:  0.03  12:  0.00  13:  0.95  14:  0.88  15:  0.04  16:  0.01
  17:  0.03  18:  0.00
 recommended # of modes for mode following           4
 
speedup  0.95
cpu  time for all    0.30 s
wall time for all    0.31 s
