 Entering Gaussian System
 *********************************************
 Gaussian 98:
 frequency output generated by the xtb code
 *********************************************
                         Standard orientation:
 --------------------------------------------------------------------
  Center     Atomic     Atomic              Coordinates (Angstroms)
  Number     Number      Type              X           Y           Z
 --------------------------------------------------------------------
    1          6             0        2.464084    0.561008    0.033568
    2          6             0        3.847594    0.559333    0.023870
    3          6             0        4.543864    1.755691    0.018420
    4          6             0        3.847472    2.952056    0.022231
    5          6             0        2.464041    2.950246    0.031999
    6          6             0        1.754897    1.755560    0.038374
    7          1             0        1.926105   -0.376755    0.038941
    8          1             0        4.383995   -0.378667    0.022066
    9          1             0        5.623992    1.755750    0.012756
   10          1             0        4.383833    3.890077    0.019318
   11          1             0        1.925829    3.887883    0.036172
   12          6             0        0.255949    1.755998    0.026642
   13          1             0       -0.136214    2.636452    0.530822
   14          1             0       -0.108168    1.766827   -1.001510
   15          1             0       -0.136817    0.865784    0.512775
 --------------------------------------------------------------------
     1 basis functions        1 primitive gaussians
     1 alpha electrons        1 beta electrons
 
 Harmonic frequencies (cm**-1), IR intensities (KM/Mole),
 Raman scattering activities (A**4/amu), Raman depolarization ratios,
 reduced masses (AMU), force constants (mDyne/A) and normal coordinates:
                      1                      2                      3
                        a                      a                      a 
 Frequencies --    15.2891               198.3798               371.1334
 Red. masses --    99.0000                99.0000                99.0000
 Frc consts  --    99.0000                99.0000                99.0000
 IR Inten    --    99.0000                99.0000                99.0000
 Raman Activ --     0.0000                 0.0000                 0.0000
 Depolar     --     0.0000                 0.0000                 0.0000
 Atom AN      X      Y      Z        X      Y      Z        X      Y      Z
   1   6     0.01  -0.02   0.08     0.00   0.00  -0.38     0.01  -0.01   0.42
   2   6     0.02   0.00   0.08     0.00   0.00   0.01     0.00   0.00  -0.42
   3   6     0.00   0.01   0.00     0.01   0.00   0.42    -0.00   0.00  -0.00
   4   6    -0.02   0.00  -0.08     0.00  -0.00   0.01    -0.00   0.00   0.42
   5   6    -0.01  -0.02  -0.08     0.00  -0.00  -0.38    -0.01  -0.01  -0.42
   6   6     0.00  -0.03  -0.00    -0.00  -0.00  -0.28     0.00  -0.01  -0.00
   7   1     0.01  -0.01   0.04    -0.00   0.00  -0.16     0.00  -0.00   0.27
   8   1     0.01   0.00   0.04     0.00  -0.00   0.03     0.00   0.00  -0.27
   9   1     0.00   0.01   0.00     0.00   0.00   0.27    -0.00   0.00  -0.00
  10   1    -0.01   0.00  -0.04     0.00   0.00   0.03    -0.00   0.00   0.27
  11   1    -0.01  -0.01  -0.04    -0.00  -0.00  -0.16    -0.00  -0.00  -0.27
  12   6     0.00   0.04   0.00    -0.01   0.00   0.42     0.00   0.01  -0.00
  13   1     0.01  -0.26   0.49     0.08  -0.00   0.19     0.00   0.01  -0.00
  14   1    -0.00   0.59   0.01    -0.18  -0.00   0.18     0.00   0.01  -0.00
  15   1    -0.01  -0.25  -0.49     0.08   0.00   0.19    -0.00   0.01   0.00
                      4                      5                      6
                        a                      a                      a 
 Frequencies --   443.3215               654.6867               739.9093
 Red. masses --    99.0000                99.0000                99.0000
 Frc consts  --    99.0000                99.0000                99.0000
 IR Inten    --    99.0000                99.0000                99.0000
 Raman Activ --     0.0000                 0.0000                 0.0000
 Depolar     --     0.0000                 0.0000                 0.0000
 Atom AN      X      Y      Z        X      Y      Z        X      Y      Z
   1   6    -0.01  -0.02  -0.08    -0.00   0.01  -0.35     0.01  -0.01   0.16
   2   6    -0.02  -0.01  -0.27     0.00   0.01   0.38     0.01  -0.02   0.14
   3   6    -0.03   0.00   0.39     0.01  -0.00  -0.36    -0.02   0.00   0.15
   4   6    -0.02   0.01  -0.27     0.00  -0.01   0.38     0.01   0.02   0.14
   5   6    -0.01   0.02  -0.08    -0.00  -0.01  -0.35     0.01   0.01   0.16
   6   6     0.03   0.00   0.62    -0.00   0.00   0.41     0.01  -0.00  -0.19
   7   1    -0.01  -0.00  -0.16    -0.00   0.00  -0.21    -0.01  -0.00  -0.35
   8   1    -0.00  -0.00  -0.24    -0.00   0.00   0.08     0.01  -0.00  -0.41
   9   1    -0.01   0.00   0.19     0.00  -0.00  -0.20    -0.01  -0.00  -0.47
  10   1    -0.00   0.00  -0.24    -0.00  -0.00   0.08     0.01   0.00  -0.41
  11   1    -0.01   0.00  -0.16    -0.00  -0.00  -0.21    -0.01   0.00  -0.35
  12   6     0.05  -0.00  -0.05    -0.00   0.00   0.05    -0.02   0.00  -0.04
  13   1    -0.09   0.00  -0.10    -0.06   0.00  -0.03     0.07  -0.01   0.05
  14   1     0.22   0.00  -0.09     0.13   0.00  -0.03    -0.16  -0.00   0.04
  15   1    -0.08  -0.00  -0.10    -0.06  -0.00  -0.03     0.06   0.01   0.05
                      7                      8                      9
                        a                      a                      a 
 Frequencies --   878.0965               897.5361               929.3358
 Red. masses --    99.0000                99.0000                99.0000
 Frc consts  --    99.0000                99.0000                99.0000
 IR Inten    --    99.0000                99.0000                99.0000
 Raman Activ --     0.0000                 0.0000                 0.0000
 Depolar     --     0.0000                 0.0000                 0.0000
 Atom AN      X      Y      Z        X      Y      Z        X      Y      Z
   1   6    -0.00   0.00  -0.24     0.00  -0.00  -0.24     0.00  -0.00   0.26
   2   6    -0.00  -0.00  -0.22     0.00  -0.01   0.04     0.00  -0.00  -0.28
   3   6     0.00  -0.00   0.00    -0.00   0.00   0.34     0.00   0.00   0.00
   4   6     0.00  -0.00   0.22     0.00   0.01   0.03    -0.00  -0.00   0.27
   5   6     0.00   0.00   0.24     0.00   0.00  -0.24    -0.00  -0.00  -0.26
   6   6     0.00   0.00  -0.00    -0.00   0.00   0.02     0.00   0.00   0.00
   7   1     0.01  -0.00   0.46     0.01  -0.00   0.46    -0.01  -0.00  -0.41
   8   1     0.00   0.00   0.43     0.00  -0.00  -0.13     0.01   0.00   0.44
   9   1    -0.00  -0.00  -0.00    -0.00  -0.00  -0.55    -0.00   0.00  -0.01
  10   1    -0.00  -0.00  -0.43     0.00   0.00  -0.13    -0.01   0.00  -0.43
  11   1    -0.01  -0.00  -0.46     0.01   0.00   0.46     0.01   0.00   0.41
  12   6    -0.00   0.00   0.00    -0.01  -0.00   0.04    -0.00   0.01   0.00
  13   1    -0.00  -0.00   0.00    -0.04   0.00  -0.03    -0.01  -0.00  -0.00
  14   1    -0.00  -0.00  -0.00     0.07  -0.00  -0.02     0.00  -0.00  -0.00
  15   1     0.00  -0.00  -0.00    -0.04  -0.00  -0.03     0.01  -0.00   0.00
                     10                     11                     12
                        a                      a                      a 
 Frequencies --   931.4911               338.7756               504.8398
 Red. masses --    99.0000                99.0000                99.0000
 Frc consts  --    99.0000                99.0000                99.0000
 IR Inten    --    99.0000                99.0000                99.0000
 Raman Activ --     0.0000                 0.0000                 0.0000
 Depolar     --     0.0000                 0.0000                 0.0000
 Atom AN      X      Y      Z        X      Y      Z        X      Y      Z
   1   6     0.00  -0.00   0.06     0.13  -0.29  -0.02    -0.08  -0.24  -0.00
   2   6    -0.00  -0.00  -0.21     0.17   0.04   0.01    -0.14  -0.21   0.03
   3   6     0.00   0.00   0.25    -0.00   0.14   0.00    -0.48  -0.00  -0.03
   4   6    -0.00   0.00  -0.22    -0.17   0.04  -0.01    -0.14   0.21   0.03
   5   6     0.00   0.00   0.06    -0.13  -0.29   0.02    -0.08   0.24  -0.00
   6   6     0.00   0.00   0.05     0.00  -0.35   0.00     0.36   0.00  -0.05
   7   1    -0.00   0.00  -0.23     0.09  -0.11  -0.01    -0.11  -0.02   0.01
   8   1     0.00   0.00   0.47     0.10   0.04   0.00     0.03  -0.02   0.02
   9   1    -0.00  -0.00  -0.52    -0.00   0.08   0.00    -0.14  -0.00  -0.01
  10   1     0.00  -0.00   0.48    -0.10   0.04  -0.00     0.03   0.02   0.02
  11   1    -0.00  -0.00  -0.23    -0.09  -0.11   0.01    -0.11   0.02   0.01
  12   6    -0.00  -0.00   0.02     0.00   0.51  -0.00     0.52  -0.00   0.01
  13   1    -0.02   0.00  -0.01     0.20   0.26  -0.04     0.15  -0.00   0.01
  14   1     0.03  -0.00  -0.01     0.00   0.19  -0.00     0.13  -0.00   0.01
  15   1    -0.02  -0.00  -0.01    -0.20   0.26   0.04     0.15   0.00   0.01
                     13                     14                     15
                        a                      a                      a 
 Frequencies --   593.1363               810.0613              1032.1542
 Red. masses --    99.0000                99.0000                99.0000
 Frc consts  --    99.0000                99.0000                99.0000
 IR Inten    --    99.0000                99.0000                99.0000
 Raman Activ --     0.0000                 0.0000                 0.0000
 Depolar     --     0.0000                 0.0000                 0.0000
 Atom AN      X      Y      Z        X      Y      Z        X      Y      Z
   1   6     0.33   0.28  -0.00     0.17  -0.18  -0.01     0.00   0.01   0.06
   2   6     0.36  -0.34  -0.00     0.24  -0.38  -0.01     0.01  -0.02   0.03
   3   6     0.00  -0.18   0.00    -0.30   0.00  -0.01     0.00   0.00  -0.02
   4   6    -0.36  -0.34   0.00     0.24   0.38  -0.01     0.01   0.02   0.03
   5   6    -0.33   0.28   0.00     0.17   0.18  -0.01     0.00  -0.01   0.06
   6   6    -0.00   0.16  -0.00     0.02   0.00   0.03    -0.01  -0.00  -0.37
   7   1     0.04   0.11  -0.00     0.01  -0.04   0.01    -0.01   0.01  -0.07
   8   1     0.05  -0.12  -0.00     0.18  -0.04   0.02    -0.00  -0.01  -0.05
   9   1     0.00   0.11  -0.00    -0.08   0.00   0.03     0.00   0.00   0.01
  10   1    -0.05  -0.12   0.00     0.18   0.04   0.02    -0.00   0.01  -0.05
  11   1    -0.04   0.11   0.00     0.01   0.04   0.01    -0.01  -0.01  -0.07
  12   6    -0.00   0.08  -0.00    -0.49   0.00  -0.01    -0.02   0.00   0.43
  13   1     0.02   0.03  -0.00    -0.15  -0.01   0.00    -0.30   0.04  -0.20
  14   1     0.00   0.03  -0.00    -0.15  -0.00   0.00     0.62  -0.00  -0.12
  15   1    -0.02   0.03   0.00    -0.15   0.01   0.00    -0.29  -0.04  -0.20
                     16                     17                     18
                        a                      a                      a 
 Frequencies --  1486.1881              1007.0723               988.6488
 Red. masses --    99.0000                99.0000                99.0000
 Frc consts  --    99.0000                99.0000                99.0000
 IR Inten    --    99.0000                99.0000                99.0000
 Raman Activ --     0.0000                 0.0000                 0.0000
 Depolar     --     0.0000                 0.0000                 0.0000
 Atom AN      X      Y      Z        X      Y      Z        X      Y      Z
   1   6    -0.08   0.01   0.00    -0.01  -0.17  -0.00    -0.19  -0.54   0.00
   2   6     0.03  -0.07   0.00     0.06  -0.07   0.01    -0.03   0.15   0.00
   3   6     0.01   0.14  -0.00     0.00   0.07  -0.00     0.39  -0.00  -0.00
   4   6    -0.06  -0.05   0.00    -0.07  -0.07  -0.01    -0.03  -0.15   0.00
   5   6     0.06  -0.02  -0.00     0.01  -0.16   0.00    -0.18   0.54   0.00
   6   6     0.02   0.09   0.00     0.00   0.12   0.00     0.15  -0.00  -0.01
   7   1     0.05  -0.04  -0.00     0.02  -0.06   0.00    -0.00  -0.18  -0.00
   8   1     0.00  -0.03  -0.00     0.09   0.02  -0.01     0.08   0.08  -0.00
   9   1     0.00  -0.08   0.00     0.00   0.10  -0.00     0.11  -0.00   0.00
  10   1     0.02  -0.04   0.00    -0.09   0.02   0.01     0.08  -0.08  -0.00
  11   1    -0.03  -0.03   0.00    -0.02  -0.06  -0.00    -0.00   0.18  -0.00
  12   6    -0.01   0.19   0.01     0.00   0.43  -0.00    -0.14  -0.00   0.01
  13   1     0.28  -0.06   0.35    -0.54  -0.16   0.03    -0.06  -0.01  -0.00
  14   1    -0.01  -0.68  -0.00    -0.01  -0.20  -0.00    -0.04   0.00   0.00
  15   1    -0.27  -0.08  -0.38     0.55  -0.16  -0.03    -0.06   0.01  -0.00
                     19                     20                     21
                        a                      a                      a 
 Frequencies --  1086.7186              1126.8065              1182.8174
 Red. masses --    99.0000                99.0000                99.0000
 Frc consts  --    99.0000                99.0000                99.0000
 IR Inten    --    99.0000                99.0000                99.0000
 Raman Activ --     0.0000                 0.0000                 0.0000
 Depolar     --     0.0000                 0.0000                 0.0000
 Atom AN      X      Y      Z        X      Y      Z        X      Y      Z
   1   6    -0.16  -0.00  -0.00     0.23   0.11   0.00     0.08  -0.00  -0.00
   2   6     0.06  -0.37  -0.00    -0.11   0.15   0.00     0.03   0.02   0.00
   3   6     0.45  -0.00  -0.00    -0.00  -0.19   0.00     0.00  -0.08   0.00
   4   6     0.06   0.37  -0.00     0.11   0.15  -0.00    -0.03   0.02  -0.00
   5   6    -0.16   0.00  -0.00    -0.23   0.11  -0.00    -0.08  -0.00   0.00
   6   6    -0.02   0.00   0.01     0.00  -0.13   0.00    -0.00   0.07  -0.00
   7   1    -0.29   0.13   0.01     0.40  -0.16  -0.01    -0.13   0.09   0.00
   8   1    -0.24  -0.26   0.00    -0.24  -0.08   0.00     0.40   0.23  -0.00
   9   1     0.13  -0.00  -0.00    -0.00  -0.47   0.00     0.00  -0.70   0.00
  10   1    -0.24   0.26   0.00     0.24  -0.08  -0.00    -0.41   0.23   0.00
  11   1    -0.29  -0.13   0.01    -0.40  -0.16   0.01     0.13   0.09  -0.00
  12   6     0.04   0.00  -0.02    -0.00   0.10  -0.00     0.00   0.00   0.00
  13   1     0.02  -0.01   0.01    -0.09  -0.02   0.01     0.00   0.00  -0.00
  14   1    -0.01  -0.00   0.00    -0.00  -0.04  -0.00    -0.00   0.00   0.00
  15   1     0.02   0.01   0.01     0.09  -0.02  -0.01    -0.00   0.00   0.00
                     22                     23                     24
                        a                      a                      a 
 Frequencies --  1201.5483              1244.1472              1292.0333
 Red. masses --    99.0000                99.0000                99.0000
 Frc consts  --    99.0000                99.0000                99.0000
 IR Inten    --    99.0000                99.0000                99.0000
 Raman Activ --     0.0000                 0.0000                 0.0000
 Depolar     --     0.0000                 0.0000                 0.0000
 Atom AN      X      Y      Z        X      Y      Z        X      Y      Z
   1   6    -0.08   0.09  -0.00    -0.20  -0.01   0.00    -0.20   0.08   0.00
   2   6     0.07   0.10  -0.00     0.14  -0.18  -0.00    -0.06  -0.08  -0.00
   3   6     0.04   0.00   0.00     0.09  -0.00  -0.00    -0.00  -0.22   0.00
   4   6     0.07  -0.10  -0.00     0.14   0.18  -0.00     0.06  -0.08   0.00
   5   6    -0.08  -0.09  -0.00    -0.20   0.01   0.00     0.20   0.08  -0.00
   6   6     0.08   0.00   0.00    -0.65  -0.00  -0.00    -0.00   0.23  -0.00
   7   1    -0.45   0.27   0.01     0.14  -0.13  -0.01     0.40  -0.24  -0.01
   8   1     0.38   0.23  -0.00     0.28   0.08  -0.00     0.32   0.17  -0.00
   9   1     0.01  -0.00  -0.00     0.03  -0.00  -0.00    -0.00   0.27  -0.00
  10   1     0.37  -0.23  -0.00     0.28  -0.08  -0.00    -0.32   0.17   0.00
  11   1    -0.45  -0.27   0.01     0.14   0.13  -0.01    -0.40  -0.24   0.01
  12   6    -0.03   0.00  -0.01     0.30  -0.00   0.01    -0.00  -0.09   0.00
  13   1    -0.03  -0.01   0.01     0.14   0.03  -0.01     0.07   0.03  -0.02
  14   1    -0.02  -0.00   0.00     0.11   0.00  -0.01     0.00   0.05   0.00
  15   1    -0.03   0.01   0.01     0.14  -0.03  -0.01    -0.07   0.02   0.02
                     25                     26                     27
                        a                      a                      a 
 Frequencies --  1322.7756              1482.3940              1404.5401
 Red. masses --    99.0000                99.0000                99.0000
 Frc consts  --    99.0000                99.0000                99.0000
 IR Inten    --    99.0000                99.0000                99.0000
 Raman Activ --     0.0000                 0.0000                 0.0000
 Depolar     --     0.0000                 0.0000                 0.0000
 Atom AN      X      Y      Z        X      Y      Z        X      Y      Z
   1   6    -0.34   0.19   0.00     0.11  -0.17  -0.00     0.01  -0.02   0.00
   2   6     0.36   0.21  -0.00     0.17   0.18  -0.00    -0.00   0.02   0.00
   3   6    -0.00  -0.39   0.00    -0.17   0.00   0.00    -0.00   0.00   0.00
   4   6    -0.36   0.20   0.00     0.17  -0.18  -0.00    -0.00  -0.02   0.00
   5   6     0.34   0.19  -0.00     0.11   0.17  -0.00     0.01   0.02   0.00
   6   6     0.00  -0.43   0.00    -0.26  -0.00   0.03     0.04   0.00  -0.01
   7   1    -0.04   0.02  -0.00    -0.17   0.06   0.00    -0.03   0.01   0.00
   8   1    -0.01  -0.00   0.00    -0.16  -0.07   0.00    -0.01  -0.00  -0.00
   9   1    -0.00  -0.02   0.00    -0.05  -0.00  -0.00    -0.00  -0.00  -0.00
  10   1     0.01  -0.00  -0.00    -0.16   0.07   0.00    -0.01   0.00  -0.00
  11   1     0.04   0.02   0.00    -0.17  -0.06   0.00    -0.03  -0.01   0.00
  12   6    -0.00   0.07  -0.00     0.01   0.00   0.16    -0.44   0.00  -0.05
  13   1    -0.06  -0.03   0.02     0.20   0.29  -0.35     0.45   0.11   0.19
  14   1    -0.00  -0.07  -0.00    -0.17  -0.01   0.07     0.51  -0.00  -0.20
  15   1     0.06  -0.03  -0.02     0.19  -0.29  -0.36     0.45  -0.11   0.19
                     28                     29                     30
                        a                      a                      a 
 Frequencies --  1439.7001              1488.1297              1593.6381
 Red. masses --    99.0000                99.0000                99.0000
 Frc consts  --    99.0000                99.0000                99.0000
 IR Inten    --    99.0000                99.0000                99.0000
 Raman Activ --     0.0000                 0.0000                 0.0000
 Depolar     --     0.0000                 0.0000                 0.0000
 Atom AN      X      Y      Z        X      Y      Z        X      Y      Z
   1   6     0.26   0.13  -0.00    -0.09   0.18  -0.00    -0.15   0.28   0.00
   2   6    -0.33   0.07   0.00    -0.23  -0.19   0.00    -0.13  -0.30   0.00
   3   6     0.00  -0.34   0.00     0.21  -0.01  -0.00     0.00   0.54  -0.00
   4   6     0.33   0.07  -0.00    -0.22   0.20   0.00     0.12  -0.30  -0.00
   5   6    -0.26   0.13   0.00    -0.10  -0.18  -0.00     0.15   0.28  -0.00
   6   6    -0.00  -0.39   0.00     0.34  -0.01   0.02    -0.00  -0.50   0.00
   7   1    -0.09   0.14   0.00     0.15  -0.05   0.00     0.08   0.00  -0.00
   8   1     0.14   0.16  -0.00     0.18   0.08   0.00     0.07  -0.02  -0.00
   9   1    -0.00   0.36  -0.00     0.06   0.01  -0.00     0.00  -0.13   0.00
  10   1    -0.14   0.16   0.00     0.17  -0.08   0.00    -0.07  -0.02   0.00
  11   1     0.09   0.14  -0.00     0.16   0.05  -0.00    -0.08   0.00   0.00
  12   6     0.00   0.13   0.00    -0.15  -0.01   0.14    -0.00   0.03  -0.00
  13   1    -0.01  -0.04   0.09     0.12   0.26  -0.33    -0.07  -0.01  -0.04
  14   1    -0.00  -0.18  -0.00    -0.18   0.04   0.07    -0.00   0.05   0.00
  15   1     0.01  -0.03  -0.09     0.15  -0.25  -0.30     0.07  -0.01   0.04
                     31                     32                     33
                        a                      a                      a 
 Frequencies --  1608.7582              2994.2185              3034.7923
 Red. masses --    99.0000                99.0000                99.0000
 Frc consts  --    99.0000                99.0000                99.0000
 IR Inten    --    99.0000                99.0000                99.0000
 Raman Activ --     0.0000                 0.0000                 0.0000
 Depolar     --     0.0000                 0.0000                 0.0000
 Atom AN      X      Y      Z        X      Y      Z        X      Y      Z
   1   6     0.45  -0.14  -0.00    -0.00  -0.00   0.00     0.01   0.01  -0.00
   2   6    -0.41  -0.12   0.00     0.00   0.00  -0.00     0.00  -0.00   0.00
   3   6     0.20  -0.00  -0.00    -0.00   0.00  -0.00     0.00   0.00   0.00
   4   6    -0.42   0.12   0.00     0.00  -0.00  -0.00    -0.00  -0.00   0.00
   5   6     0.44   0.14  -0.00    -0.00   0.00  -0.00    -0.01   0.02   0.00
   6   6    -0.32   0.00  -0.00     0.01  -0.00   0.01     0.00  -0.01  -0.00
   7   1    -0.09   0.08   0.00     0.00   0.00   0.00    -0.03  -0.05   0.00
   8   1     0.07   0.07  -0.00     0.00  -0.00  -0.00    -0.00   0.01  -0.00
   9   1     0.05   0.00  -0.00    -0.00   0.00   0.00    -0.00   0.00  -0.00
  10   1     0.07  -0.07  -0.00     0.00   0.00  -0.00     0.00   0.01  -0.00
  11   1    -0.09  -0.08   0.00     0.00  -0.01   0.00     0.04  -0.06  -0.00
  12   6     0.05   0.00  -0.01     0.06  -0.00   0.26     0.04  -0.28  -0.04
  13   1     0.00  -0.01   0.02     0.05  -0.10  -0.01    -0.30   0.67   0.40
  14   1     0.02  -0.00  -0.01    -0.31   0.01  -0.90    -0.01  -0.04  -0.05
  15   1     0.00   0.01   0.02     0.05   0.09  -0.01     0.17   0.36  -0.22
                     34                     35                     36
                        a                      a                      a 
 Frequencies --  3036.0604              3066.6088              3067.0236
 Red. masses --    99.0000                99.0000                99.0000
 Frc consts  --    99.0000                99.0000                99.0000
 IR Inten    --    99.0000                99.0000                99.0000
 Raman Activ --     0.0000                 0.0000                 0.0000
 Depolar     --     0.0000                 0.0000                 0.0000
 Atom AN      X      Y      Z        X      Y      Z        X      Y      Z
   1   6     0.01   0.01  -0.00     0.08   0.14  -0.00    -0.06  -0.11   0.00
   2   6     0.00  -0.00  -0.00     0.05  -0.09  -0.00    -0.05   0.10   0.00
   3   6    -0.00   0.00  -0.00    -0.00  -0.00   0.00     0.08  -0.00  -0.00
   4   6    -0.00  -0.00  -0.00    -0.05  -0.08   0.00    -0.06  -0.10   0.00
   5   6     0.00  -0.00   0.00    -0.08   0.13   0.00    -0.07   0.12   0.00
   6   6    -0.01  -0.00   0.00     0.00   0.01  -0.00    -0.01   0.00   0.00
   7   1    -0.02  -0.04   0.00    -0.29  -0.51   0.00     0.23   0.40  -0.00
   8   1    -0.00   0.00   0.00    -0.19   0.33   0.00     0.21  -0.37  -0.00
   9   1     0.00   0.00   0.00     0.01   0.00  -0.00    -0.31   0.00   0.00
  10   1     0.00   0.00   0.00     0.17   0.30  -0.00     0.22   0.39  -0.00
  11   1    -0.00   0.01   0.00     0.28  -0.48  -0.00     0.25  -0.43  -0.00
  12   6    -0.13  -0.08   0.12     0.00   0.02  -0.00    -0.00   0.00   0.00
  13   1     0.15  -0.39  -0.20     0.02  -0.04  -0.03     0.01  -0.02  -0.01
  14   1     0.03  -0.01   0.16    -0.00   0.00  -0.00     0.00   0.00   0.01
  15   1     0.28   0.70  -0.37    -0.02  -0.05   0.03     0.01   0.01  -0.01
                     37                     38                     39
                        a                      a                      a 
 Frequencies --  3074.7427              3079.8891              3089.8285
 Red. masses --    99.0000                99.0000                99.0000
 Frc consts  --    99.0000                99.0000                99.0000
 IR Inten    --    99.0000                99.0000                99.0000
 Raman Activ --     0.0000                 0.0000                 0.0000
 Depolar     --     0.0000                 0.0000                 0.0000
 Atom AN      X      Y      Z        X      Y      Z        X      Y      Z
   1   6    -0.06  -0.11   0.00    -0.05  -0.09   0.00     0.03   0.05  -0.00
   2   6     0.04  -0.07  -0.00     0.08  -0.14  -0.00    -0.07   0.12   0.00
   3   6    -0.17  -0.00   0.00     0.00   0.00  -0.00    -0.20  -0.00   0.00
   4   6     0.04   0.07  -0.00    -0.08  -0.14   0.00    -0.07  -0.12   0.00
   5   6    -0.06   0.11   0.00     0.05  -0.09  -0.00     0.03  -0.05  -0.00
   6   6    -0.01   0.00   0.00     0.00   0.00  -0.00     0.00   0.00  -0.00
   7   1     0.22   0.39  -0.00     0.18   0.31  -0.00    -0.09  -0.16   0.00
   8   1    -0.14   0.24   0.00    -0.29   0.50   0.00     0.22  -0.38  -0.00
   9   1     0.61   0.00  -0.00    -0.00  -0.00   0.00     0.68   0.00  -0.00
  10   1    -0.14  -0.24   0.00     0.29   0.50  -0.00     0.22   0.38  -0.00
  11   1     0.22  -0.39  -0.00    -0.18   0.31   0.00    -0.09   0.16   0.00
  12   6    -0.00  -0.00   0.00    -0.00  -0.01   0.00     0.00   0.00  -0.00
  13   1     0.01  -0.01  -0.01    -0.01   0.02   0.01    -0.00   0.01   0.00
  14   1     0.00  -0.00   0.01    -0.00  -0.00  -0.00    -0.00   0.00  -0.00
  15   1     0.01   0.01  -0.01     0.01   0.02  -0.01    -0.00  -0.01   0.00
