 
        ______________________________________
       |                                      |
       |           ==================         |
       |                 x T B                |
       |           ==================         |
       |               S. Grimme              |
       |        Universitaet Bonn, MCTC       |
       |         2015-18, Version 5.8.1       |
       |      Sun May  6 11:39:08 CEST 2018   |
       |______________________________________|
 
        This code comes without any warranty
        for non-commercial, academia use only.
        Preliminary GFN2 test version.
        Test license to: Dow Chemical Company
        Cite GFN-xTB work as:
        S. Grimme, C. Bannwarth, P. Shushkov
        JCTC, 13 (2017) 1989-2009
        for GFN2:
        C. Bannwarth, S. Ehlert, S. Grimme
        to be published.
        sTDA-xTB:
        S. Grimme  &  C. Bannwarth, JCP 145 (2016) 054103
        in the mass-spec context additionally:
        V. Asgeirsson, C.Bauer, S. Grimme, Chem. Sci. 8 (2017) 4879
 
        with help from
        P. Shushkov, G. Brandenburg, S. Dohm, J. Pisarek,
        F. März, M. Checinski, S. Ehrlich, S. Spicher, 
        P. Pracht, E. Caldeweyher, S. Ehlert, and C. Bannwarth.
 
        usage        :
        xtb <coord_file> [options]
        where <coord_file> is a valid file of TM)
        (*coord, Bohr) or xmol (*xyz, Angstroem)
        format.

        options:
        -chrg <int>   : molecular charge
        -uhf  <int>   : # of unpaired electrons(=2*S)
        -nox          : skip second, extended part in sTDA-xTB
        -pop          : do population analysis
                      : (default for -nox)
        -mowr <real>  : cut MO write above (def.3 Eh)
        -molden       : write formatted molden file
        -parx <file>  : read parameters for sTDA-xTB
                        calc (def:~/.param_stda2.xtb)
        -parv <file>  : read parameters for vTB part in
                        sTDA-xTB (def: ~/.param_stda1.xtb)
        -xtemp <real> : el. temp for xTB (def. 0 K)
        -etemp <real> : el. temp for GFN (def. 300 K)
        -fod          : calculate the FOD and write
                        molden.input file with
                        appropriate occupations
                        for plotting. Def. T=12500 K
 
        -gfn1         : use GFN-xTB
        -gfn2         : use GFN2-xTB
        -gfn2d3       : GFN2-xTB with D3 instead of D4
        -grad         : GFNn-xTB gradient
        -acc <real>   : GFNn-xTB accuracy (def. 1.0)
        -opt [level]  : optimize at GFNn-xTB
                      : level=crude,vloose,loose,
                      :       tight,vtight
        -hess         : compute Hessian at GFNn-xTB
        -ohess        : optimize and compute Hessian
        -omd          : optimize and do MD
        -siman        : conformational search
        -screen       : opt. loop over ensemble
        -gmd          : annealed MD for GMD procedure
        -modef        : vib mode following
        -gbsa [string1] [string2]
                        use GBSA implicit solvent
                        for solvent [string1] and
                        solvation state [string2]=
                        reference, bar1M (default=1M)
        additional GFN/opt/MD/siman options read from
        $XTBHOME/.xtbrc or $set in coordinate file
 
       spin and charge state information can be on:
       <.CHRG> (charge) and <.UHF> (=nalpha-nbeta)
       -uhf and -chrg override the file info.
       useful machine settings:
       setenv MKL_NUM_THREADS <NCORE_ON_YOUR_MACHINE>
       setenv OMP_STACKSIZE 500m
       limit stacksize unlimited
 
       total energies in Eh, gaps/HL energies in eV
       please read REVISION and HOWTO files carefully
          72  days left until this code expires
 =============================
  # OMP threads =           2
 =============================
 
 xtbhome directory:/home/ua25450/dftb/
 
 argument            1 :-ohess
 
 name of molecule           :
 comment line               :
 number of atoms            :    15
 number of electrons        :    32
 charge                     :  0
 spin                       : 0.0
 first test random number   :  0.5541
 
 
 -----------------------------------------
  G F N (Geometry, Frequency, Non-covalent)
        parametrization, gfnver=           3
     D4 dispersion model
 /home/ua25450/dftb/.param_gfn2.xtb
 -----------------------------------------
      method parameters     
 k(s)        :  1.8500
 k(p)        :  2.2300
 k(d)        :  2.2300
 k(f)        :  2.0000
 kEN (H0ij)  : -2.0000
 D3 a1       :  0.5200
 D3 a2       :  5.0000
 D3 s8       :  2.7000
 D3atm       :  5.0000
 alphaj      :  2.0000
 
     -------------------------
     ! NO SOLVENT MODEL USED !
     -------------------------
 
 doing EN charges ...
 sum q : -0.7771561D-15
 point charge moment (au)
     X       Y       Z   
   0.1463   0.2069  -0.0557  total (Debye):    0.660
 
            Z     q(EN)     CN     RAES       Cart. coordinates
     1  C   4.0   -0.09    4.11    3.81    -6.87138     0.44580     0.01878
     2  H   1.0    0.05    1.01    1.43    -6.21449    -1.50818     0.06400
     3  H   1.0    0.05    1.01    1.43    -8.93257     0.41243     0.06342
     4  C   4.0   -0.03    4.04    3.70    -5.93217     1.77569     2.39562
     5  H   1.0    0.04    1.00    1.43    -3.85290     1.80196     2.41070
     6  H   1.0    0.04    1.00    1.43    -6.60097     3.74464     2.40971
     7  O   6.0   -0.17    2.03    1.83    -6.86198     0.46148     4.52380
     8  H   1.0    0.11    1.02    1.43    -6.27947     1.28600     6.03645
     9  C   4.0   -0.09    4.06    3.72    -5.95322     1.74442    -2.38491
    10  H   1.0    0.04    1.01    1.43    -3.88885     1.78128    -2.39642
    11  H   1.0    0.04    1.01    1.43    -6.61172     3.70127    -2.39923
    12  C   4.0   -0.13    4.02    3.65    -6.90074     0.39715    -4.74619
    13  H   1.0    0.04    1.00    1.43    -8.95531     0.37322    -4.78558
    14  H   1.0    0.04    1.00    1.43    -6.22941     1.34783    -6.44003
    15  H   1.0    0.04    1.00    1.43    -6.23212    -1.54578    -4.78336
 
  Z AO/shell   Hii/eV     exponent
  1     Wed Apr 25 08:07:45 CEST 2018   EN: 2.200 GM2: 0.406  GM3: 0.0800  RAES: 1.40
     1s    -10.707211    1.230000
  6     Wed Apr 25 08:07:45 CEST 2018   EN: 2.550 GM2: 0.538  GM3: 0.1500  RAES: 3.00
     2s    -13.970922    2.096432
     2p    -10.063292    1.800000
  8     Wed Apr 25 08:07:45 CEST 2018   EN: 3.440 GM2: 0.452  GM3:-0.0517  RAES: 1.80
     2s    -20.229985    2.439742
     2p    -15.503117    2.137023
 
Refinement of some symmetry elements was terminated before convergence was reached.
Some symmetry elements may remain unidentified.
Molecule has the following symmetry elements: (sigma) 
It seems to be the Cs point group
cs  symmetry found (for desy threshold:  0.10E+00) used in thermo
 no old-style atom pair restraing (fixing) potential
 
             =======================================
             |                                     |
             |        S C C  calculation           |
             |                                     |
             =======================================
 #proc     :            2
 Ncao      :           30
 Nao       :           30
 Nel       :           32
 T(el)     :   300.0
 intcut    :    25.0
 scfconv   :  0.100E-05
   qconv   :  0.100E-03
 intneglect:  0.100E-07
 broydamp  :      0.400
 Nshell    :           20
  q data taken from xtbrestart
  CAMM data taken from xtbrestart
 iter      E             dE          RMSdq      gap      omega  full diag
   1    -17.9350199 -0.179350E+02  0.386E-06   12.11       0.0  T
   2    -17.9350199 -0.248690E-13  0.231E-06   12.11   11194.9  T
   3    -17.9350199 -0.106581E-13  0.790E-07   12.11   32666.1  T
speedup  1.00
cpu  time for SCC    0.01 s
wall time for SCC    0.01 s

          eigenvalues
 #    :           4          5          6          7          8          9         10         11
 occ. :        2.000      2.000      2.000      2.000      2.000      2.000      2.000      2.000
 eps  :       -15.797    -15.551    -14.956    -14.521    -13.932    -13.681    -13.196    -12.647
 #    :          12         13         14         15         16         17         18         19
 occ. :        2.000      2.000      2.000      2.000      2.000      0.000      0.000      0.000
 eps  :       -12.411    -11.910    -11.891    -11.609    -11.076      1.031      2.710      3.289
 #    :          20         21         22         23         24         25         26         27
 occ. :        0.000      0.000      0.000      0.000      0.000      0.000      0.000      0.000
 eps  :         3.414      3.962      4.365      4.497      5.002      5.033      6.408      6.565
 

   #   Z            q   n(s)   n(p)   n(d)      C6AA      α(0)    relVol
   1   6 C     -0.066  1.051  3.014  0.000    21.820     6.658     0.539
   2   1 H      0.049  0.951  0.000  0.000     2.322     2.383     0.471
   3   1 H      0.049  0.951  0.000  0.000     2.322     2.383     0.471
   4   6 C      0.089  1.035  2.876  0.000    19.449     6.343     0.513
   5   1 H      0.013  0.987  0.000  0.000     2.841     2.636     0.522
   6   1 H      0.013  0.987  0.000  0.000     2.841     2.636     0.522
   7   8 O     -0.443  1.708  4.734  0.000    22.205     6.375     1.227
   8   1 H      0.284  0.716  0.000  0.000     0.710     1.322     0.262
   9   6 C     -0.055  1.048  3.008  0.000    21.656     6.637     0.537
  10   1 H      0.030  0.970  0.000  0.000     2.584     2.513     0.497
  11   1 H      0.030  0.970  0.000  0.000     2.583     2.513     0.497
  12   6 C     -0.104  1.036  3.067  0.000    22.680     6.811     0.551
  13   1 H      0.037  0.963  0.000  0.000     2.480     2.462     0.487
  14   1 H      0.036  0.964  0.000  0.000     2.503     2.474     0.489
  15   1 H      0.037  0.963  0.000  0.000     2.480     2.463     0.487

 Mol. C6AA /au*bohr^6 :       1469.379677
 Mol. C8AA /au*bohr^6 :      29992.189138
 Mol. a(0) /au        :         56.608548

 
 Wiberg/Mayer (AO) data. WBOs > 0.1 written file <wbo>
 largest (>0.05) Wiberg bond orders for each atom
           total WBO             WBO to atom ...
     1  C   3.994    C    9 1.008    C    4 1.004    H    3 0.976    H    2 0.976
     2  H   0.998    C    1 0.976
     3  H   0.998    C    1 0.976
     4  C   3.957    C    1 1.004    O    7 0.994    H    6 0.972    H    5 0.972
     5  H   1.000    C    4 0.972
     6  H   1.000    C    4 0.972
     7  O   1.950    C    4 0.994    H    8 0.905
     8  H   0.919    O    7 0.905
     9  C   3.998    C   12 1.020    C    1 1.008    H   11 0.978    H   10 0.978
    10  H   0.999    C    9 0.978
    11  H   0.999    C    9 0.978
    12  C   3.996    C    9 1.020    H   13 0.988    H   15 0.988    H   14 0.987
    13  H   0.999    C   12 0.988
    14  H   0.998    C   12 0.987
    15  H   0.999    C   12 0.988
 
molecular dipole:
                 x           y           z       tot (Debye)
 q only:        0.239       0.338      -0.110
   full:        0.665       0.543       0.000       1.689
molecular quadrupole (traceless):
                xx          xy          yy          xz          yz          zz
 q only:       -4.500      -2.854       1.217       3.057       2.645       3.283
  q+dip:       -5.826      -5.561       2.652       3.026       4.282       3.174
   full:       -6.482      -5.069       2.344       2.979       4.218       4.138
 SCC converged in            3  cycles
 
SCC energy    :     -17.9350199
rep           :       0.2144387
ES            :       0.0264839
AES           :       0.0043547
AXC           :       0.0057623
disp          :      -0.0069079
XB            :       0.0000000
fix           :       0.0000000
total E       :     -17.7205813
atomizationE  :       3.5284486     2214.14
(atE without considerung molecular charge,
 total energy contains solvation terms)
H-L gap (eV)  :         12.1068
 
             =======================================
             |                                     |
             |    Approximate Normal Coordinate    |
             |   Rational Function Optimization    |
             |                                     |
             =======================================
Ref. for RF algo: F.Eckert, P.Pulay, H.-J.Werner
                  J.Comput.Chem. 18 (1997) 1473.
ANC idea implemented by S. Grimme in the 2000ers (unpublished)
restraining potential by S. Ehrlich.
dumping coords to <xtbopt.coord> and <xtbopt.log
 optlevel               1
 Maxcycle             200
 Maxmicro              20
 Econv         1.000000000000000E-006
 Gconv         8.000000000000000E-004
 Maxdispl       1.00000000000000     
 Hlow          1.000000000000000E-002
 S6             20.0000000000000     
 Nvar               39

generating ANC from read Hessian ...
 Shifting diagonal of input Hessian by   9.254264700336974E-003
 Lowest  eigenvalues of input Hessian
   -0.000000   -0.000000   -0.000000    0.000000    0.000000    0.000000
    0.010000    0.010237    0.011722    0.013483    0.015160    0.024677
    0.038017    0.039253    0.042915    0.047860    0.062213    0.072094
 Highest eigenvalues
    0.737845    0.760705    0.786950    0.805157    0.827929    0.969226
 
cpu  time for ANC gen    0.01 s
wall time for ANC gen    0.01 s
................................................................................
.............................. CYCLE    1 ......................................
................................................................................
  q data taken from xtbrestart
  CAMM data taken from xtbrestart
   1    -17.9350199 -0.179350E+02  0.320E-07   12.11       0.0  T
   2    -17.9350199  0.355271E-14  0.202E-07   12.11  100000.0  T
   3    -17.9350199 -0.710543E-14  0.623E-08   12.11  100000.0  T
speedup  1.00
cpu  time for SCC    0.00 s
wall time for SCC    0.00 s
speedup  1.00
cpu  time for grad    0.00 s
wall time for grad    0.00 s
 E :    -17.72058133  G :  0.000236    pred/act E change:  0.000D+00 -0.644D-10
Maxdispl :   0.0017   ||displ|| :   0.0020   Lambda : -0.220D-06
Largest |displ|/coords:  0.0017 (   4)  0.0006 (  16)  0.0004 (   1)
ancopt converged in          1 cycles
total energy gain (kcal):      0.0000
================
 final structure:
================
    15
        -17.72058133
C          -3.63617788404599    0.23590812369175    0.00993693345503
H          -3.28856467908824   -0.79809670295382    0.03386907009731
H          -4.72691336318767    0.21824713548654    0.03355920175710
C          -3.13917063505221    0.93965342450020    1.26770607085532
H          -2.03886757847300    0.95355823071533    1.27568991763937
H          -3.49308313484667    1.98157826816056    1.27516434890532
O          -3.63120128527393    0.24420684409525    2.39389182864699
H          -3.32295309967597    0.68052307407739    3.19435378168351
C          -3.15030797098880    0.92310627177726   -1.26204045514742
H          -2.05789156554207    0.94261141260718   -1.26812995254330
H          -3.49877125557402    1.95862664999869   -1.26961809321009
C          -3.65171379207334    0.21016342778264   -2.51157615846270
H          -4.73894760293419    0.19749974289319   -2.53242087214652
H          -3.29646168288247    0.71323883008899   -3.40791526424398
H          -3.29789455036144   -0.81799329292116   -2.53124660728596
 
 Bond Distances (Angstroems)
 ---------------------------
C1-H2=1.0911         C1-H3=1.0911         C1-C4=1.5246         C1-C9=1.5252         H2-C1=1.0911         H3-C1=1.0911         
C4-C1=1.5246         C4-H5=1.1004         C4-H6=1.1004         C4-O7=1.4121         H5-C4=1.1004         H6-C4=1.1004         
O7-C4=1.4121         O7-H8=0.9624         H8-O7=0.9624         C9-C1=1.5252         C9-H10=1.0926        C9-H11=1.0926        
C9-C12=1.5235        H10-C9=1.0926        H11-C9=1.0926        C12-C9=1.5235        C12-H13=1.0875       C12-H14=1.0875       
C12-H15=1.0875       H13-C12=1.0875       H14-C12=1.0875       H15-C12=1.0875       
 C  H  Rav=1.0923 sigma=0.0048  Rmin=1.0875  Rmax=1.1004     9
 C  C  Rav=1.5244 sigma=0.0007  Rmin=1.5235  Rmax=1.5252     3
 O  H  Rav=0.9624 sigma=0.0000  Rmin=0.9624  Rmax=0.9624     1
 O  C  Rav=1.4121 sigma=0.0000  Rmin=1.4121  Rmax=1.4121     1
 
 selected bond angles (degree)
 --------------------
H3-C1-H2=107.62                C4-C1-H2=108.39                C4-C1-H3=108.39                C9-C1-H2=110.11                
C9-C1-H3=110.11                C9-C1-C4=112.10                H5-C4-C1=109.74                H6-C4-C1=109.74                
H6-C4-H5=108.03                O7-C4-C1=108.48                O7-C4-H5=110.42                O7-C4-H6=110.42                
H8-O7-C4=109.18                H10-C9-C1=109.34               H11-C9-C1=109.34               H11-C9-H10=107.57              
C12-C9-C1=111.61               C12-C9-H10=109.44              C12-C9-H11=109.44              
 
 selected dihedral angles (degree)
 ---------------------------------
H5-C4-C1-H2= 62.44            H5-C4-C1-H3=178.96            H5-C4-C1-C9=300.70            H6-C4-C1-H2=181.01            
H6-C4-C1-H3=297.54            H6-C4-C1-C9= 59.27            O7-C4-C1-H2=301.72            O7-C4-C1-H3= 58.25            
O7-C4-C1-C9=179.99            H8-O7-C4-C1=179.99            H8-O7-C4-H5= 59.70            H8-O7-C4-H6=300.29            
H10-C9-C1-H2=297.95           H10-C9-C1-H3=179.45           H10-C9-C1-C4= 58.70           H11-C9-C1-H2=180.42           
H11-C9-C1-H3= 61.91           H11-C9-C1-C4=301.16           C12-C9-C1-H2= 59.18           C12-C9-C1-H3=300.68           
C12-C9-C1-C4=179.93           
 
             =======================================
             |                                     |
             |        S C C  calculation           |
             |                                     |
             =======================================
 #proc     :            2
 Ncao      :           30
 Nao       :           30
 Nel       :           32
 T(el)     :   300.0
 intcut    :    25.0
 scfconv   :  0.100E-05
   qconv   :  0.100E-03
 intneglect:  0.100E-07
 broydamp  :      0.400
 Nshell    :           20
 iter      E             dE          RMSdq      gap      omega  full diag
   1    -17.9350199 -0.179350E+02  0.145E-08   12.11       0.0  T
   2    -17.9350199  0.710543E-14  0.719E-09   12.11  100000.0  T
   3    -17.9350199 -0.177636E-13  0.415E-09   12.11  100000.0  T
speedup  1.00
cpu  time for SCC    0.00 s
wall time for SCC    0.00 s

          eigenvalues
 #    :           4          5          6          7          8          9         10         11
 occ. :        2.000      2.000      2.000      2.000      2.000      2.000      2.000      2.000
 eps  :       -15.797    -15.551    -14.956    -14.521    -13.932    -13.681    -13.196    -12.647
 #    :          12         13         14         15         16         17         18         19
 occ. :        2.000      2.000      2.000      2.000      2.000      0.000      0.000      0.000
 eps  :       -12.411    -11.910    -11.891    -11.609    -11.076      1.031      2.710      3.289
 #    :          20         21         22         23         24         25         26         27
 occ. :        0.000      0.000      0.000      0.000      0.000      0.000      0.000      0.000
 eps  :         3.414      3.962      4.365      4.497      5.002      5.033      6.408      6.565
 

   #   Z            q   n(s)   n(p)   n(d)      C6AA      α(0)    relVol
   1   6 C     -0.066  1.051  3.014  0.000    21.820     6.658     0.539
   2   1 H      0.049  0.951  0.000  0.000     2.322     2.383     0.471
   3   1 H      0.049  0.951  0.000  0.000     2.322     2.383     0.471
   4   6 C      0.089  1.035  2.876  0.000    19.449     6.343     0.513
   5   1 H      0.013  0.987  0.000  0.000     2.841     2.636     0.522
   6   1 H      0.013  0.987  0.000  0.000     2.841     2.636     0.522
   7   8 O     -0.443  1.708  4.734  0.000    22.205     6.375     1.227
   8   1 H      0.284  0.716  0.000  0.000     0.710     1.322     0.262
   9   6 C     -0.055  1.048  3.008  0.000    21.656     6.637     0.537
  10   1 H      0.030  0.970  0.000  0.000     2.584     2.513     0.497
  11   1 H      0.030  0.970  0.000  0.000     2.583     2.513     0.497
  12   6 C     -0.104  1.036  3.067  0.000    22.680     6.811     0.551
  13   1 H      0.037  0.963  0.000  0.000     2.480     2.462     0.487
  14   1 H      0.036  0.964  0.000  0.000     2.503     2.474     0.489
  15   1 H      0.037  0.963  0.000  0.000     2.480     2.463     0.487

 Mol. C6AA /au*bohr^6 :       1469.379672
 Mol. C8AA /au*bohr^6 :      29992.189077
 Mol. a(0) /au        :         56.608548

 
 Wiberg/Mayer (AO) data. WBOs > 0.1 written file <wbo>
 largest (>0.05) Wiberg bond orders for each atom
           total WBO             WBO to atom ...
     1  C   3.994    C    9 1.008    C    4 1.004    H    3 0.976    H    2 0.976
     2  H   0.998    C    1 0.976
     3  H   0.998    C    1 0.976
     4  C   3.957    C    1 1.004    O    7 0.994    H    6 0.972    H    5 0.972
     5  H   1.000    C    4 0.972
     6  H   1.000    C    4 0.972
     7  O   1.950    C    4 0.994    H    8 0.905
     8  H   0.919    O    7 0.905
     9  C   3.998    C   12 1.020    C    1 1.008    H   11 0.978    H   10 0.978
    10  H   0.999    C    9 0.978
    11  H   0.999    C    9 0.978
    12  C   3.996    C    9 1.020    H   13 0.988    H   15 0.988    H   14 0.987
    13  H   0.999    C   12 0.988
    14  H   0.998    C   12 0.987
    15  H   0.999    C   12 0.988
 
molecular dipole:
                 x           y           z       tot (Debye)
 q only:        0.239       0.338      -0.110
   full:        0.384       0.543       0.000       1.689
molecular quadrupole (traceless):
                xx          xy          yy          xz          yz          zz
 q only:       -4.500      -2.854       1.217       3.057       2.645       3.283
  q+dip:       -5.826      -5.561       2.652       3.026       4.282       3.174
   full:       -6.482      -5.069       2.344       2.979       4.218       4.138
 SCC converged in            3  cycles
 
SCC energy    :     -17.9350199
rep           :       0.2144387
ES            :       0.0264839
AES           :       0.0043547
AXC           :       0.0057623
disp          :      -0.0069079
XB            :       0.0000000
fix           :       0.0000000
total E       :     -17.7205813
atomizationE  :       3.5284486     2214.14
(atE without considerung molecular charge,
 total energy contains solvation terms)
H-L gap (eV)  :         12.1068
 !!!!!!!!!!!!!!!!!!!!!!!!!!!!!!!!!!!
 ! Note: the input coordinates are !
 ! NOT overwritten. The optimized  !
 ! ones are on file <xtbopt.coord> !
 ! (or on <xtbopt.xyz> if it was a !
 ! xyz file)                       !
 !!!!!!!!!!!!!!!!!!!!!!!!!!!!!!!!!!!
 
Refinement of some symmetry elements was terminated before convergence was reached.
Some symmetry elements may remain unidentified.
Molecule has the following symmetry elements: (sigma) 
It seems to be the Cs point group
cs  symmetry found (for desy threshold:  0.10E+00) used in thermo
  q data taken from xtbrestart
  CAMM data taken from xtbrestart
 
             =======================================
             |                                     |
             |         Numerical Hessian           |
             |                                     |
             =======================================
step length          :   0.00500
SCC accuracy         :   0.30000
Hessian scale factor :   1.00000
frozen atoms in %    :   0.00000    0
RMS gradient         :   0.00024
estimated CPU  time      0.01 min
estimated wall time      0.01 min
 
 writing file <hessian>.
 
 projected vibrational frequencies (cm-1)
eig.   :       -0.00    -0.00     0.00     0.00     0.00     0.00
eig.   :       94.24   103.31   186.69   232.70   291.66   395.88
eig.   :      419.73   777.66   838.24   939.40   949.38  1030.25
eig.   :     1078.36  1105.04  1128.17  1161.60  1217.67  1221.50
eig.   :     1270.42  1280.77  1287.66  1357.39  1384.15  1416.01
eig.   :     1493.54  1494.81  1500.43  1502.95  1506.47  2848.62
eig.   :     2882.56  2962.84  2978.85  2989.46  3000.09  3035.40
eig.   :     3035.43  3040.92  3564.57
 reduced masses (amu)
   1: 11.84   2: 10.21   3: 10.30   4:  9.51   5:  9.19   6: 11.52   7:  9.25   8:  6.52
   9:  9.99  10:  2.12  11:  2.13  12:  9.80  13: 10.95  14:  1.75  15:  2.38  16:  5.83
  17:  2.34  18:  9.51  19:  9.54  20: 10.09  21:  7.15  22:  5.22  23:  3.74  24:  4.43
  25:  1.53  26:  2.48  27:  3.98  28:  4.73  29:  5.01  30:  3.18  31:  1.94  32:  1.86
  33:  1.79  34:  1.53  35:  1.67  36:  1.97  37:  1.42  38:  1.95  39:  1.47  40:  2.01
  41:  1.51  42:  1.95  43:  1.95  44:  1.26  45:  1.88
 IR intensities (amu)
   1:  0.12   2:  0.20   3:  0.18   4:  0.35   5:  0.11   6:  0.11   7:  0.40   8:  0.18
   9:  0.21  10:  0.03  11:  0.49  12:  0.16  13:  0.35  14:  0.00  15:  0.13  16:  0.15
  17:  0.09  18:  0.34  19:  0.88  20:  0.63  21:  0.32  22:  0.32  23:  0.33  24:  0.08
  25:  0.02  26:  0.05  27:  0.33  28:  0.15  29:  0.27  30:  0.02  31:  0.08  32:  0.06
  33:  0.11  34:  0.03  35:  0.01  36:  0.39  37:  0.32  38:  0.20  39:  0.20  40:  0.31
  41:  0.23  42:  0.27  43:  0.27  44:  0.18  45:  0.14
 output can be read by thermo (or use thermo option).
 writing <g98.out> molden fake output.
 recommended (thermochemical) frequency scaling factor: 1.0
                    ==================
                    thermo calculation
                    ==================
Nvib :   39 Nimag : 0  symmetry :   cs  rot number :  1  scale factor : 1.00 sthr :  50.
omega= 94.24     Gvib=    -1.064     Grot=    -0.869     Gused=    -1.050
omega=103.31     Gvib=    -1.011     Grot=    -0.841     Gused=    -1.002
omega=186.69     Gvib=    -0.674     Grot=    -0.666     Gused=    -0.674
omega=232.70     Gvib=    -0.554     Grot=    -0.601     Gused=    -0.554
omega=291.66     Gvib=    -0.437     Grot=    -0.534     Gused=    -0.437
 
   temp. (K)  partition function   enthalpy   heat capacity  entropy
                                   cal/mol     cal/K/mol   cal/K/mol   J/K/mol
 298.15  VIB   34.7                 2565.629     17.287     15.575
         ROT  0.103E+06              888.752      2.981     25.920
         INT  0.357E+07             3454.381     20.268     41.494
         TR   0.617E+27             1481.254      4.968     38.808
         TOT                        4935.6347    25.2362    80.3022   335.9833
                     Eh         kcal/mol          kJ/mol 
ZPVE            0.134423         84.3516         352.926    
H(0)-H(T)+PV    0.786543E-02     4.93563         20.6506    
H(T)            0.142288         89.2873         373.577    
T*S             0.381542E-01     23.9421         100.173    
G(T)            0.104134         65.3452         273.403    
    -17.61644721  <=== TOTAL FREE ENERGY in Eh incl. el.,ZPVE,RRHO,solv. parts
 
Eat (element increment corrected) /kcal :  1592.137
        -238.710  <=== HOF(298)/kcal, to be compared to exptl. data
 
 normal mode %tage of torsion character
   1:  0.00   2:  0.00   3:  0.00   4:  0.00   5:  0.00   6:  0.00   7:  0.48   8:  0.36
   9:  0.19  10:  0.86  11:  0.96  12:  0.16  13:  0.14  14:  0.79  15:  0.44  16:  0.22
  17:  0.15  18:  0.27  19:  0.07  20:  0.10  21:  0.19  22:  0.39  23:  0.15  24:  0.39
  25:  0.08  26:  0.23  27:  0.38  28:  0.24  29:  0.27  30:  0.00  31:  0.36  32:  0.42
  33:  0.59  34:  0.93  35:  0.75  36:  0.06  37:  0.01  38:  0.18  39:  0.02  40:  0.10
  41:  0.06  42:  0.04  43:  0.05  44:  0.00  45:  0.00
 recommended # of modes for mode following           4
 
speedup  0.98
cpu  time for all    0.73 s
wall time for all    0.74 s
