 Entering Gaussian System
 *********************************************
 Gaussian 98:
 frequency output generated by the xtb code
 *********************************************
                         Standard orientation:
 --------------------------------------------------------------------
  Center     Atomic     Atomic              Coordinates (Angstroms)
  Number     Number      Type              X           Y           Z
 --------------------------------------------------------------------
    1          6             0       -3.636177    0.235927    0.009949
    2          1             0       -3.288569   -0.798079    0.033882
    3          1             0       -4.726912    0.218272    0.033575
    4          6             0       -3.139161    0.939672    1.267715
    5          1             0       -2.038858    0.953571    1.275695
    6          1             0       -3.493068    1.981599    1.275173
    7          8             0       -3.631192    0.244230    2.393904
    8          1             0       -3.322938    0.680546    3.194364
    9          6             0       -3.150307    0.923121   -1.262031
   10          1             0       -2.057891    0.942620   -1.268124
   11          1             0       -3.498765    1.958643   -1.269609
   12          6             0       -3.651721    0.210178   -2.511564
   13          1             0       -4.738955    0.197520   -2.532405
   14          1             0       -3.296470    0.713250   -3.407905
   15          1             0       -3.297908   -0.817980   -2.531234
 --------------------------------------------------------------------
     1 basis functions        1 primitive gaussians
     1 alpha electrons        1 beta electrons
 
 Harmonic frequencies (cm**-1), IR intensities (KM/Mole),
 Raman scattering activities (A**4/amu), Raman depolarization ratios,
 reduced masses (AMU), force constants (mDyne/A) and normal coordinates:
                      1                      2                      3
                        a                      a                      a 
 Frequencies --    94.2431               103.3092               186.6870
 Red. masses --     9.2516                 6.5237                 9.9913
 Frc consts  --     0.0000                 0.0000                 0.0000
 IR Inten    --     0.4026                 0.1823                 0.2095
 Raman Activ --     0.0000                 0.0000                 0.0000
 Depolar     --     0.0000                 0.0000                 0.0000
 Atom AN      X      Y      Z        X      Y      Z        X      Y      Z
   1   6     0.42  -0.30   0.00     0.25  -0.18   0.00    -0.26  -0.37   0.01
   2   1     0.24  -0.05  -0.05     0.17  -0.02   0.08    -0.07  -0.10   0.00
   3   1     0.13  -0.21   0.05     0.07  -0.15  -0.08    -0.07  -0.10   0.00
   4   6     0.25  -0.18  -0.00    -0.30   0.21  -0.00    -0.11  -0.15  -0.15
   5   1     0.07  -0.14   0.10    -0.09   0.27   0.03    -0.03  -0.04  -0.12
   6   1     0.16  -0.02  -0.11    -0.28  -0.00  -0.03    -0.03  -0.04  -0.12
   7   8    -0.40   0.28   0.00     0.07  -0.05   0.00     0.23   0.32   0.27
   8   1    -0.13   0.09  -0.00    -0.10   0.07  -0.00     0.12   0.18  -0.01
   9   6    -0.07   0.05   0.00     0.32  -0.23   0.00    -0.13  -0.18   0.15
  10   1    -0.02   0.11  -0.08     0.09  -0.20  -0.06    -0.04  -0.05   0.11
  11   1    -0.11  -0.02   0.08     0.22  -0.02   0.06    -0.03  -0.05   0.11
  12   6    -0.18   0.13  -0.00    -0.27   0.19  -0.00     0.20   0.28  -0.24
  13   1    -0.05  -0.07   0.09    -0.08   0.26   0.04     0.06   0.09  -0.16
  14   1    -0.18   0.13  -0.00    -0.01   0.01  -0.00     0.13   0.19   0.02
  15   1     0.05   0.07  -0.09    -0.27  -0.01  -0.04     0.06   0.08  -0.16
                      4                      5                      6
                        a                      a                      a 
 Frequencies --   232.6983               291.6553               395.8763
 Red. masses --     2.1169                 2.1287                 9.8022
 Frc consts  --     0.0000                 0.0000                 0.0000
 IR Inten    --     0.0323                 0.4880                 0.1589
 Raman Activ --     0.0000                 0.0000                 0.0000
 Depolar     --     0.0000                 0.0000                 0.0000
 Atom AN      X      Y      Z        X      Y      Z        X      Y      Z
   1   6     0.11  -0.08   0.00    -0.07   0.05  -0.00     0.13   0.19   0.15
   2   1     0.12   0.01  -0.04    -0.07  -0.00  -0.01     0.03   0.05   0.08
   3   1     0.03  -0.12   0.04    -0.02   0.07   0.01     0.04   0.05   0.08
   4   6     0.08  -0.05   0.00     0.09  -0.07   0.00     0.08   0.11   0.36
   5   1     0.02  -0.03   0.02     0.03  -0.03  -0.01     0.02   0.03   0.15
   6   1     0.03  -0.01  -0.02     0.04  -0.02   0.01     0.02   0.03   0.15
   7   8    -0.02   0.02  -0.00     0.20  -0.14  -0.00    -0.06  -0.09   0.32
   8   1    -0.01   0.01   0.00    -0.78   0.55  -0.00    -0.04  -0.05   0.10
   9   6    -0.22   0.15  -0.00    -0.03   0.02  -0.00    -0.14  -0.19  -0.28
  10   1    -0.06   0.15  -0.00    -0.01   0.00   0.01    -0.04  -0.05  -0.11
  11   1    -0.16   0.01   0.00    -0.00   0.01  -0.01    -0.03  -0.05  -0.11
  12   6     0.04  -0.03   0.00     0.00  -0.00   0.00    -0.02  -0.03  -0.54
  13   1     0.01   0.40  -0.31     0.00  -0.01  -0.01    -0.00  -0.00  -0.23
  14   1     0.46  -0.32   0.00     0.00  -0.00  -0.00     0.06   0.08  -0.08
  15   1    -0.37  -0.14   0.31     0.01   0.00   0.01    -0.00  -0.00  -0.23
                      7                      8                      9
                        a                      a                      a 
 Frequencies --   419.7325               777.6632               838.2399
 Red. masses --    10.9489                 1.7456                 2.3832
 Frc consts  --     0.0000                 0.0000                 0.0000
 IR Inten    --     0.3472                 0.0018                 0.1322
 Raman Activ --     0.0000                 0.0000                 0.0000
 Depolar     --     0.0000                 0.0000                 0.0000
 Atom AN      X      Y      Z        X      Y      Z        X      Y      Z
   1   6     0.04   0.05  -0.33    -0.14   0.10  -0.00     0.14  -0.10  -0.00
   2   1     0.01   0.01  -0.19     0.40   0.17  -0.07    -0.23  -0.12  -0.18
   3   1     0.01   0.01  -0.19    -0.02  -0.44   0.07     0.03   0.26   0.18
   4   6    -0.22  -0.31   0.04    -0.04   0.03   0.00     0.16  -0.11  -0.00
   5   1    -0.06  -0.08  -0.00    -0.00  -0.18  -0.09     0.03   0.33   0.16
   6   1    -0.06  -0.09  -0.00     0.17   0.06   0.09    -0.30  -0.14  -0.16
   7   8     0.04   0.06   0.57     0.02  -0.02  -0.00    -0.06   0.04   0.00
   8   1     0.10   0.14   0.04    -0.01   0.01  -0.00     0.02  -0.01   0.00
   9   6     0.20   0.28  -0.26    -0.15   0.10  -0.00    -0.17   0.12  -0.00
  10   1     0.05   0.07  -0.10    -0.03  -0.43   0.05    -0.04  -0.28  -0.12
  11   1     0.05   0.08  -0.10     0.40   0.17  -0.05     0.26   0.13   0.12
  12   6    -0.06  -0.08   0.02    -0.02   0.01  -0.00    -0.08   0.05  -0.00
  13   1    -0.02  -0.03   0.10     0.00  -0.15  -0.13    -0.01  -0.21  -0.22
  14   1    -0.09  -0.13  -0.08     0.05  -0.03   0.00     0.10  -0.07  -0.00
  15   1    -0.02  -0.03   0.10     0.14   0.05   0.13     0.20   0.08   0.23
                     10                     11                     12
                        a                      a                      a 
 Frequencies --   939.3988               949.3812              1030.2549
 Red. masses --     5.8288                 2.3379                 9.5071
 Frc consts  --     0.0000                 0.0000                 0.0000
 IR Inten    --     0.1459                 0.0920                 0.3364
 Raman Activ --     0.0000                 0.0000                 0.0000
 Depolar     --     0.0000                 0.0000                 0.0000
 Atom AN      X      Y      Z        X      Y      Z        X      Y      Z
   1   6    -0.23  -0.33   0.16     0.13  -0.09   0.00    -0.16  -0.23  -0.44
   2   1    -0.06  -0.08   0.11    -0.11  -0.06   0.34    -0.04  -0.06  -0.13
   3   1    -0.06  -0.08   0.12     0.02   0.12  -0.33    -0.04  -0.06  -0.13
   4   6     0.10   0.14   0.12    -0.19   0.13   0.00     0.29   0.41   0.01
   5   1     0.03   0.03   0.01    -0.04  -0.26  -0.10     0.07   0.09   0.03
   6   1     0.02   0.03   0.01     0.23   0.12   0.10     0.06   0.09   0.03
   7   8     0.01   0.02  -0.03     0.05  -0.04  -0.00    -0.06  -0.09   0.24
   8   1    -0.08  -0.11   0.08    -0.00   0.00   0.00    -0.17  -0.24   0.24
   9   6     0.15   0.22  -0.10     0.05  -0.03  -0.00    -0.11  -0.16  -0.16
  10   1     0.04   0.06   0.13     0.01   0.05  -0.33    -0.03  -0.05  -0.02
  11   1     0.04   0.06   0.12    -0.04  -0.02   0.33    -0.04  -0.05  -0.03
  12   6     0.06   0.09  -0.34    -0.15   0.11  -0.00     0.08   0.11   0.26
  13   1     0.01  -0.02   0.24    -0.03  -0.22  -0.25     0.02   0.04   0.05
  14   1    -0.24  -0.35  -0.40     0.11  -0.08  -0.00     0.04   0.06   0.10
  15   1    -0.03  -0.00   0.23     0.19   0.10   0.25     0.03   0.03   0.05
                     13                     14                     15
                        a                      a                      a 
 Frequencies --  1078.3626              1105.0367              1128.1731
 Red. masses --     9.5416                10.0898                 7.1511
 Frc consts  --     0.0000                 0.0000                 0.0000
 IR Inten    --     0.8819                 0.6328                 0.3177
 Raman Activ --     0.0000                 0.0000                 0.0000
 Depolar     --     0.0000                 0.0000                 0.0000
 Atom AN      X      Y      Z        X      Y      Z        X      Y      Z
   1   6     0.12   0.17   0.12     0.04   0.05  -0.10     0.17   0.24  -0.39
   2   1     0.03   0.05   0.25     0.03   0.02  -0.08     0.04   0.06  -0.14
   3   1     0.04   0.05   0.25     0.01   0.03  -0.08     0.04   0.06  -0.14
   4   6     0.05   0.08  -0.54     0.15   0.21  -0.34    -0.04  -0.06   0.19
   5   1     0.00  -0.00  -0.05     0.03   0.03  -0.08    -0.00   0.01   0.16
   6   1    -0.00  -0.00  -0.05     0.02   0.04  -0.08     0.01  -0.00   0.16
   7   8    -0.19  -0.27   0.32    -0.12  -0.17   0.26     0.04   0.06  -0.09
   8   1     0.12   0.17  -0.12    -0.04  -0.05   0.07     0.08   0.11  -0.10
   9   6    -0.13  -0.18  -0.16     0.14   0.20   0.48    -0.23  -0.33   0.26
  10   1    -0.03  -0.04   0.00     0.04   0.05   0.21    -0.06  -0.08   0.29
  11   1    -0.03  -0.05   0.00     0.04   0.05   0.21    -0.06  -0.08   0.29
  12   6     0.14   0.20   0.06    -0.19  -0.27  -0.28     0.08   0.11  -0.14
  13   1     0.03   0.03   0.18    -0.05  -0.07  -0.18     0.01  -0.02   0.17
  14   1    -0.07  -0.09  -0.10     0.00   0.00  -0.02    -0.12  -0.17  -0.19
  15   1     0.02   0.04   0.18    -0.05  -0.07  -0.18    -0.02   0.01   0.17
                     16                     17                     18
                        a                      a                      a 
 Frequencies --  1161.5973              1217.6686              1221.5013
 Red. masses --     5.2249                 3.7386                 4.4262
 Frc consts  --     0.0000                 0.0000                 0.0000
 IR Inten    --     0.3196                 0.3313                 0.0827
 Raman Activ --     0.0000                 0.0000                 0.0000
 Depolar     --     0.0000                 0.0000                 0.0000
 Atom AN      X      Y      Z        X      Y      Z        X      Y      Z
   1   6    -0.26   0.18  -0.00    -0.16  -0.22  -0.19     0.14  -0.10   0.00
   2   1     0.17   0.12   0.16    -0.04  -0.05   0.13    -0.08  -0.06   0.28
   3   1    -0.06  -0.20  -0.16    -0.04  -0.05   0.13     0.03   0.09  -0.28
   4   6     0.35  -0.25   0.00     0.11   0.16   0.08     0.08  -0.06  -0.00
   5   1     0.08   0.33  -0.27     0.03   0.05   0.35     0.02   0.08  -0.29
   6   1    -0.28  -0.19   0.27     0.03   0.04   0.35    -0.07  -0.05   0.28
   7   8    -0.13   0.09  -0.00    -0.09  -0.13  -0.04    -0.06   0.05   0.00
   8   1    -0.01   0.01   0.00     0.30   0.43  -0.38    -0.01   0.00   0.00
   9   6     0.19  -0.13   0.00     0.10   0.15  -0.08    -0.34   0.24   0.00
  10   1     0.04   0.14  -0.10     0.03   0.03   0.07    -0.08  -0.23  -0.14
  11   1    -0.12  -0.09   0.10     0.02   0.03   0.07     0.19   0.15   0.14
  12   6    -0.10   0.07  -0.00    -0.07  -0.10   0.06     0.25  -0.18  -0.00
  13   1    -0.02  -0.09  -0.10    -0.01   0.01  -0.09     0.05   0.20   0.21
  14   1     0.05  -0.03  -0.00     0.05   0.08   0.10    -0.11   0.08  -0.00
  15   1     0.08   0.05   0.10     0.01  -0.01  -0.09    -0.17  -0.11  -0.21
                     19                     20                     21
                        a                      a                      a 
 Frequencies --  1270.4187              1280.7699              1287.6597
 Red. masses --     1.5343                 2.4815                 3.9790
 Frc consts  --     0.0000                 0.0000                 0.0000
 IR Inten    --     0.0238                 0.0484                 0.3284
 Raman Activ --     0.0000                 0.0000                 0.0000
 Depolar     --     0.0000                 0.0000                 0.0000
 Atom AN      X      Y      Z        X      Y      Z        X      Y      Z
   1   6     0.06  -0.04  -0.00     0.24  -0.17  -0.00    -0.05  -0.07   0.31
   2   1    -0.02  -0.01   0.45    -0.12  -0.11  -0.18    -0.00  -0.03  -0.44
   3   1     0.01   0.02  -0.45     0.06   0.15   0.18    -0.02  -0.01  -0.44
   4   6     0.10  -0.07  -0.00    -0.09   0.06  -0.00     0.13   0.18   0.05
   5   1     0.02   0.05   0.21    -0.01  -0.02  -0.49     0.03   0.02  -0.05
   6   1    -0.04  -0.04  -0.21     0.02   0.02   0.49     0.01   0.04  -0.05
   7   8     0.01  -0.01  -0.00    -0.06   0.04   0.00    -0.10  -0.15   0.01
   8   1     0.01  -0.01  -0.00    -0.02   0.01   0.00     0.16   0.23  -0.21
   9   6    -0.08   0.06  -0.00     0.04  -0.03   0.00    -0.05  -0.07   0.21
  10   1    -0.02  -0.05   0.46     0.01   0.02   0.34    -0.02  -0.01  -0.31
  11   1     0.04   0.03  -0.46    -0.01  -0.02  -0.34    -0.01  -0.02  -0.31
  12   6    -0.11   0.08  -0.00    -0.13   0.09  -0.00     0.07   0.11  -0.05
  13   1    -0.03  -0.07  -0.08    -0.03  -0.09  -0.09     0.01  -0.03   0.04
  14   1     0.01  -0.01   0.00     0.05  -0.03   0.00    -0.07  -0.10  -0.11
  15   1     0.05   0.05   0.08     0.07   0.05   0.09    -0.03   0.00   0.04
                     22                     23                     24
                        a                      a                      a 
 Frequencies --  1357.3922              1384.1539              1416.0146
 Red. masses --     4.7284                 5.0120                 3.1793
 Frc consts  --     0.0000                 0.0000                 0.0000
 IR Inten    --     0.1482                 0.2744                 0.0241
 Raman Activ --     0.0000                 0.0000                 0.0000
 Depolar     --     0.0000                 0.0000                 0.0000
 Atom AN      X      Y      Z        X      Y      Z        X      Y      Z
   1   6     0.03   0.04   0.25     0.01   0.01  -0.34     0.01   0.02   0.00
   2   1    -0.03  -0.01  -0.22    -0.02   0.00   0.25     0.00   0.01   0.01
   3   1     0.00  -0.03  -0.22     0.01  -0.02   0.25     0.00   0.00   0.01
   4   6     0.05   0.08   0.16     0.05   0.07   0.42    -0.00  -0.00   0.03
   5   1     0.02   0.01  -0.26     0.02   0.03  -0.46     0.00   0.00  -0.04
   6   1     0.00   0.02  -0.26     0.02   0.03  -0.46     0.00   0.00  -0.04
   7   8    -0.07  -0.10   0.01    -0.09  -0.12   0.01    -0.01  -0.01   0.00
   8   1     0.08   0.12  -0.11     0.11   0.16  -0.15     0.01   0.01  -0.01
   9   6    -0.01  -0.01  -0.45     0.01   0.02   0.18     0.00   0.00  -0.08
  10   1     0.00   0.03   0.42     0.00  -0.01  -0.12    -0.00  -0.05   0.08
  11   1     0.03   0.01   0.42    -0.01  -0.00  -0.12    -0.05  -0.02   0.08
  12   6    -0.06  -0.08   0.05     0.00   0.00  -0.04     0.13   0.18   0.37
  13   1    -0.01   0.07   0.01     0.00  -0.01   0.02     0.02  -0.22  -0.46
  14   1     0.07   0.10   0.11     0.00   0.00  -0.01    -0.25  -0.35  -0.27
  15   1     0.07   0.01   0.01    -0.01  -0.00   0.02    -0.22  -0.05  -0.46
                     25                     26                     27
                        a                      a                      a 
 Frequencies --  1493.5447              1494.8100              1500.4312
 Red. masses --     1.9381                 1.8564                 1.7922
 Frc consts  --     0.0000                 0.0000                 0.0000
 IR Inten    --     0.0753                 0.0600                 0.1062
 Raman Activ --     0.0000                 0.0000                 0.0000
 Depolar     --     0.0000                 0.0000                 0.0000
 Atom AN      X      Y      Z        X      Y      Z        X      Y      Z
   1   6     0.13   0.18  -0.02    -0.10  -0.14  -0.02     0.02   0.03  -0.01
   2   1    -0.50  -0.16   0.02     0.37   0.12   0.02    -0.14  -0.05   0.01
   3   1     0.02  -0.52   0.02    -0.01   0.39   0.02     0.00  -0.15   0.01
   4   6     0.10   0.14  -0.00     0.09   0.13   0.04    -0.08  -0.11  -0.02
   5   1     0.00  -0.41   0.03     0.00  -0.42  -0.01    -0.00   0.35   0.00
   6   1    -0.39  -0.13   0.03    -0.39  -0.14  -0.01     0.33   0.12   0.00
   7   8     0.02   0.02  -0.01     0.01   0.02  -0.02    -0.01  -0.01   0.02
   8   1    -0.00  -0.00   0.01     0.00   0.01  -0.01    -0.00  -0.00   0.00
   9   6    -0.03  -0.04   0.03    -0.08  -0.11  -0.02    -0.13  -0.18   0.00
  10   1    -0.00   0.13  -0.02    -0.01   0.32   0.01    -0.01   0.55  -0.01
  11   1     0.12   0.04  -0.02     0.31   0.10   0.01     0.52   0.17  -0.01
  12   6    -0.00  -0.01   0.01     0.03   0.04  -0.01     0.02   0.03   0.00
  13   1    -0.00   0.03  -0.02     0.00  -0.17   0.02     0.00  -0.14  -0.00
  14   1    -0.02  -0.02  -0.02     0.03   0.05   0.04     0.01   0.02   0.02
  15   1     0.03   0.01  -0.02    -0.16  -0.05   0.02    -0.13  -0.04   0.00
                     28                     29                     30
                        a                      a                      a 
 Frequencies --  1502.9547              1506.4655              2848.6198
 Red. masses --     1.5310                 1.6731                 1.9740
 Frc consts  --     0.0000                 0.0000                 0.0000
 IR Inten    --     0.0308                 0.0104                 0.3940
 Raman Activ --     0.0000                 0.0000                 0.0000
 Depolar     --     0.0000                 0.0000                 0.0000
 Atom AN      X      Y      Z        X      Y      Z        X      Y      Z
   1   6    -0.00   0.00   0.00     0.02   0.03   0.02    -0.01   0.00   0.00
   2   1     0.00  -0.00  -0.02    -0.10  -0.03  -0.01     0.01  -0.04  -0.00
   3   1     0.00   0.00   0.02     0.00  -0.11  -0.01     0.04   0.00   0.00
   4   6    -0.00   0.00   0.00    -0.00  -0.00  -0.01     0.24  -0.17   0.00
   5   1    -0.00  -0.00  -0.00     0.00   0.02   0.01    -0.67  -0.03  -0.01
   6   1     0.00   0.00   0.00     0.02   0.01   0.01    -0.20   0.64   0.01
   7   8    -0.00   0.00  -0.00    -0.00  -0.00   0.00     0.01  -0.00   0.00
   8   1     0.00  -0.00   0.00    -0.00  -0.00   0.00    -0.00   0.00  -0.00
   9   6     0.04  -0.03  -0.00     0.07   0.10  -0.05    -0.01   0.00  -0.00
  10   1     0.01   0.01   0.02     0.01  -0.18   0.04     0.01  -0.00   0.00
  11   1    -0.01  -0.02  -0.02    -0.17  -0.05   0.03     0.00  -0.01  -0.00
  12   6     0.17  -0.12   0.00     0.10   0.14  -0.11    -0.00   0.00  -0.00
  13   1     0.02   0.16  -0.44     0.01  -0.59   0.14     0.00  -0.00  -0.00
  14   1    -0.58   0.41  -0.00     0.16   0.22   0.17    -0.00   0.00   0.00
  15   1    -0.15  -0.07   0.44    -0.56  -0.19   0.14     0.00  -0.00   0.00
                     31                     32                     33
                        a                      a                      a 
 Frequencies --  2882.5620              2962.8358              2978.8511
 Red. masses --     1.4191                 1.9505                 1.4681
 Frc consts  --     0.0000                 0.0000                 0.0000
 IR Inten    --     0.3187                 0.2011                 0.1964
 Raman Activ --     0.0000                 0.0000                 0.0000
 Depolar     --     0.0000                 0.0000                 0.0000
 Atom AN      X      Y      Z        X      Y      Z        X      Y      Z
   1   6     0.00   0.00  -0.00    -0.06   0.04  -0.00     0.02   0.03   0.00
   2   1     0.01  -0.03   0.00     0.05  -0.17   0.00     0.05  -0.12   0.00
   3   1    -0.03   0.00   0.00     0.18   0.01  -0.00    -0.12   0.00   0.00
   4   6    -0.11  -0.16  -0.02    -0.00   0.00  -0.00    -0.00  -0.00  -0.00
   5   1     0.69  -0.04   0.00    -0.00  -0.00  -0.00     0.02  -0.00   0.00
   6   1    -0.26   0.64   0.00     0.00   0.00   0.00    -0.01   0.02   0.00
   7   8    -0.01  -0.01   0.02    -0.00   0.00  -0.00    -0.00  -0.00  -0.00
   8   1    -0.00  -0.00   0.00     0.00  -0.00   0.00     0.00   0.00   0.00
   9   6     0.00   0.01   0.00     0.23  -0.16   0.00    -0.12  -0.16   0.00
  10   1    -0.02   0.00  -0.00    -0.65  -0.03   0.00     0.68  -0.02  -0.00
  11   1     0.01  -0.02  -0.00    -0.19   0.62  -0.01    -0.25   0.63  -0.00
  12   6     0.00   0.00  -0.00    -0.02   0.01  -0.00     0.01   0.01  -0.01
  13   1    -0.00   0.00   0.00     0.07   0.00   0.00    -0.05   0.00  -0.00
  14   1    -0.00  -0.00   0.00    -0.00   0.00  -0.00    -0.02  -0.02   0.04
  15   1     0.00  -0.00   0.00     0.02  -0.06  -0.00     0.02  -0.04  -0.00
                     34                     35                     36
                        a                      a                      a 
 Frequencies --  2989.4573              3000.0869              3035.3983
 Red. masses --     2.0115                 1.5058                 1.9465
 Frc consts  --     0.0000                 0.0000                 0.0000
 IR Inten    --     0.3095                 0.2263                 0.2678
 Raman Activ --     0.0000                 0.0000                 0.0000
 Depolar     --     0.0000                 0.0000                 0.0000
 Atom AN      X      Y      Z        X      Y      Z        X      Y      Z
   1   6    -0.24   0.17  -0.00    -0.12  -0.17   0.01     0.00  -0.01   0.00
   2   1     0.19  -0.62   0.01    -0.25   0.63  -0.01    -0.02   0.06  -0.00
   3   1     0.65   0.02  -0.01     0.67  -0.02  -0.01     0.02  -0.00  -0.00
   4   6    -0.02   0.01  -0.00    -0.01  -0.01  -0.00     0.00  -0.00  -0.00
   5   1     0.04  -0.00  -0.00     0.03  -0.00   0.00     0.00  -0.00   0.00
   6   1     0.01  -0.04   0.00    -0.01   0.03   0.00    -0.00   0.01   0.00
   7   8     0.00  -0.00  -0.00     0.00   0.00   0.00     0.00   0.00   0.00
   8   1    -0.00   0.00   0.00    -0.00  -0.00  -0.01    -0.00  -0.00  -0.00
   9   6    -0.07   0.05  -0.00    -0.02  -0.03   0.00     0.01  -0.03   0.00
  10   1     0.17   0.00  -0.00     0.12  -0.00  -0.00    -0.00  -0.00   0.00
  11   1     0.05  -0.16   0.00    -0.04   0.11  -0.00    -0.03   0.09  -0.00
  12   6     0.02  -0.01   0.00     0.02   0.02  -0.01     0.06  -0.25   0.13
  13   1    -0.05  -0.00   0.00    -0.06   0.00  -0.00    -0.22  -0.04   0.02
  14   1     0.00  -0.00  -0.00    -0.02  -0.03   0.05     0.23   0.27  -0.51
  15   1    -0.02   0.05  -0.00     0.02  -0.06  -0.00    -0.23   0.64   0.02
                     37                     38                     39
                        a                      a                      a 
 Frequencies --  3035.4289              3040.9191              3564.5718
 Red. masses --     1.9485                 1.2566                 1.8753
 Frc consts  --     0.0000                 0.0000                 0.0000
 IR Inten    --     0.2691                 0.1787                 0.1440
 Raman Activ --     0.0000                 0.0000                 0.0000
 Depolar     --     0.0000                 0.0000                 0.0000
 Atom AN      X      Y      Z        X      Y      Z        X      Y      Z
   1   6     0.01   0.00  -0.00    -0.00  -0.01   0.00     0.00   0.00  -0.00
   2   1     0.01  -0.01   0.00    -0.01   0.03  -0.00    -0.00   0.00   0.00
   3   1    -0.06   0.00   0.00     0.03  -0.00  -0.00     0.01  -0.00   0.00
   4   6     0.00   0.00   0.00    -0.00  -0.00   0.00    -0.00  -0.00  -0.00
   5   1    -0.01   0.00  -0.00     0.00  -0.00   0.00     0.00   0.00   0.00
   6   1     0.00  -0.00   0.00    -0.00   0.00   0.00     0.00   0.00   0.00
   7   8    -0.00  -0.00  -0.00     0.00   0.00   0.00    -0.08  -0.11  -0.20
   8   1     0.00   0.00   0.00    -0.00  -0.00  -0.00     0.31   0.44   0.81
   9   6     0.03  -0.00  -0.00    -0.01  -0.01  -0.00    -0.00  -0.00  -0.00
  10   1    -0.10   0.00   0.00     0.03  -0.00  -0.00    -0.00   0.00  -0.00
  11   1    -0.00   0.01  -0.00    -0.01   0.02  -0.00     0.00  -0.00  -0.00
  12   6     0.26   0.00  -0.12    -0.06  -0.09  -0.10    -0.00  -0.00  -0.00
  13   1    -0.71  -0.00  -0.02     0.61  -0.01  -0.01     0.00   0.00   0.00
  14   1    -0.16  -0.28   0.46    -0.17  -0.24   0.38     0.00  -0.00  -0.00
  15   1    -0.06   0.28  -0.02    -0.21   0.57  -0.01    -0.00   0.00   0.00
