 Entering Gaussian System
 *********************************************
 Gaussian 98:
 frequency output generated by the xtb code
 *********************************************
                         Standard orientation:
 --------------------------------------------------------------------
  Center     Atomic     Atomic              Coordinates (Angstroms)
  Number     Number      Type              X           Y           Z
 --------------------------------------------------------------------
    1          6             0       -3.636178    0.235908    0.009937
    2          1             0       -3.288565   -0.798097    0.033869
    3          1             0       -4.726913    0.218247    0.033559
    4          6             0       -3.139171    0.939653    1.267706
    5          1             0       -2.038868    0.953558    1.275690
    6          1             0       -3.493083    1.981578    1.275164
    7          8             0       -3.631201    0.244207    2.393892
    8          1             0       -3.322953    0.680523    3.194354
    9          6             0       -3.150308    0.923106   -1.262040
   10          1             0       -2.057892    0.942611   -1.268130
   11          1             0       -3.498771    1.958627   -1.269618
   12          6             0       -3.651714    0.210163   -2.511576
   13          1             0       -4.738947    0.197500   -2.532421
   14          1             0       -3.296462    0.713239   -3.407915
   15          1             0       -3.297894   -0.817993   -2.531247
 --------------------------------------------------------------------
     1 basis functions        1 primitive gaussians
     1 alpha electrons        1 beta electrons
 
 Harmonic frequencies (cm**-1), IR intensities (KM/Mole),
 Raman scattering activities (A**4/amu), Raman depolarization ratios,
 reduced masses (AMU), force constants (mDyne/A) and normal coordinates:
                      1                      2                      3
                        a                      a                      a 
 Frequencies --    94.2431               103.3092               232.6983
 Red. masses --    99.0000                99.0000                99.0000
 Frc consts  --    99.0000                99.0000                99.0000
 IR Inten    --    99.0000                99.0000                99.0000
 Raman Activ --     0.0000                 0.0000                 0.0000
 Depolar     --     0.0000                 0.0000                 0.0000
 Atom AN      X      Y      Z        X      Y      Z        X      Y      Z
   1   6     0.42  -0.30   0.00     0.25  -0.18   0.00     0.11  -0.08   0.00
   2   1     0.24  -0.05  -0.05     0.17  -0.02   0.08     0.12   0.01  -0.04
   3   1     0.13  -0.21   0.05     0.07  -0.15  -0.08     0.03  -0.12   0.04
   4   6     0.25  -0.18  -0.00    -0.30   0.21  -0.00     0.08  -0.05   0.00
   5   1     0.07  -0.14   0.10    -0.09   0.27   0.03     0.02  -0.03   0.02
   6   1     0.16  -0.02  -0.11    -0.28  -0.00  -0.03     0.03  -0.01  -0.02
   7   8    -0.40   0.28   0.00     0.07  -0.05   0.00    -0.02   0.02  -0.00
   8   1    -0.13   0.09  -0.00    -0.10   0.07  -0.00    -0.01   0.01   0.00
   9   6    -0.07   0.05   0.00     0.32  -0.23   0.00    -0.22   0.15  -0.00
  10   1    -0.02   0.11  -0.08     0.09  -0.20  -0.06    -0.06   0.15  -0.00
  11   1    -0.11  -0.02   0.08     0.22  -0.02   0.06    -0.16   0.01   0.00
  12   6    -0.18   0.13  -0.00    -0.27   0.19  -0.00     0.04  -0.03   0.00
  13   1    -0.05  -0.07   0.09    -0.08   0.26   0.04     0.01   0.40  -0.31
  14   1    -0.18   0.13  -0.00    -0.01   0.01  -0.00     0.46  -0.32   0.00
  15   1     0.05   0.07  -0.09    -0.27  -0.01  -0.04    -0.37  -0.14   0.31
                      4                      5                      6
                        a                      a                      a 
 Frequencies --   291.6553               186.6870               395.8763
 Red. masses --    99.0000                99.0000                99.0000
 Frc consts  --    99.0000                99.0000                99.0000
 IR Inten    --    99.0000                99.0000                99.0000
 Raman Activ --     0.0000                 0.0000                 0.0000
 Depolar     --     0.0000                 0.0000                 0.0000
 Atom AN      X      Y      Z        X      Y      Z        X      Y      Z
   1   6    -0.07   0.05  -0.00    -0.26  -0.37   0.01     0.13   0.19   0.15
   2   1    -0.07  -0.00  -0.01    -0.07  -0.10   0.00     0.03   0.05   0.08
   3   1    -0.02   0.07   0.01    -0.07  -0.10   0.00     0.04   0.05   0.08
   4   6     0.09  -0.07   0.00    -0.11  -0.15  -0.15     0.08   0.11   0.36
   5   1     0.03  -0.03  -0.01    -0.03  -0.04  -0.12     0.02   0.03   0.15
   6   1     0.04  -0.02   0.01    -0.03  -0.04  -0.12     0.02   0.03   0.15
   7   8     0.20  -0.14  -0.00     0.23   0.32   0.27    -0.06  -0.09   0.32
   8   1    -0.78   0.55  -0.00     0.12   0.18  -0.01    -0.04  -0.05   0.10
   9   6    -0.03   0.02  -0.00    -0.13  -0.18   0.15    -0.14  -0.19  -0.28
  10   1    -0.01   0.00   0.01    -0.04  -0.05   0.11    -0.04  -0.05  -0.11
  11   1    -0.00   0.01  -0.01    -0.03  -0.05   0.11    -0.03  -0.05  -0.11
  12   6     0.00  -0.00   0.00     0.20   0.28  -0.24    -0.02  -0.03  -0.54
  13   1     0.00  -0.01  -0.01     0.06   0.09  -0.16    -0.00  -0.00  -0.23
  14   1     0.00  -0.00  -0.00     0.13   0.19   0.02     0.06   0.08  -0.08
  15   1     0.01   0.00   0.01     0.06   0.08  -0.16    -0.00  -0.00  -0.23
                      7                      8                      9
                        a                      a                      a 
 Frequencies --   777.6632               419.7325              1502.9547
 Red. masses --    99.0000                99.0000                99.0000
 Frc consts  --    99.0000                99.0000                99.0000
 IR Inten    --    99.0000                99.0000                99.0000
 Raman Activ --     0.0000                 0.0000                 0.0000
 Depolar     --     0.0000                 0.0000                 0.0000
 Atom AN      X      Y      Z        X      Y      Z        X      Y      Z
   1   6    -0.14   0.10  -0.00     0.04   0.05  -0.33    -0.00   0.00   0.00
   2   1     0.40   0.17  -0.07     0.01   0.01  -0.19     0.00  -0.00  -0.02
   3   1    -0.02  -0.44   0.07     0.01   0.01  -0.19     0.00   0.00   0.02
   4   6    -0.04   0.03   0.00    -0.22  -0.31   0.04    -0.00   0.00   0.00
   5   1    -0.00  -0.18  -0.09    -0.06  -0.08  -0.00    -0.00  -0.00  -0.00
   6   1     0.17   0.06   0.09    -0.06  -0.09  -0.00     0.00   0.00   0.00
   7   8     0.02  -0.02  -0.00     0.04   0.06   0.57    -0.00   0.00  -0.00
   8   1    -0.01   0.01  -0.00     0.10   0.14   0.04     0.00  -0.00   0.00
   9   6    -0.15   0.10  -0.00     0.20   0.28  -0.26     0.04  -0.03  -0.00
  10   1    -0.03  -0.43   0.05     0.05   0.07  -0.10     0.01   0.01   0.02
  11   1     0.40   0.17  -0.05     0.05   0.08  -0.10    -0.01  -0.02  -0.02
  12   6    -0.02   0.01  -0.00    -0.06  -0.08   0.02     0.17  -0.12   0.00
  13   1     0.00  -0.15  -0.13    -0.02  -0.03   0.10     0.02   0.16  -0.44
  14   1     0.05  -0.03   0.00    -0.09  -0.13  -0.08    -0.58   0.41  -0.00
  15   1     0.14   0.05   0.13    -0.02  -0.03   0.10    -0.15  -0.07   0.44
                     10                     11                     12
                        a                      a                      a 
 Frequencies --   838.2399              1506.4655               939.3988
 Red. masses --    99.0000                99.0000                99.0000
 Frc consts  --    99.0000                99.0000                99.0000
 IR Inten    --    99.0000                99.0000                99.0000
 Raman Activ --     0.0000                 0.0000                 0.0000
 Depolar     --     0.0000                 0.0000                 0.0000
 Atom AN      X      Y      Z        X      Y      Z        X      Y      Z
   1   6     0.14  -0.10  -0.00     0.02   0.03   0.02    -0.23  -0.33   0.16
   2   1    -0.23  -0.12  -0.18    -0.10  -0.03  -0.01    -0.06  -0.08   0.11
   3   1     0.03   0.26   0.18     0.00  -0.11  -0.01    -0.06  -0.08   0.12
   4   6     0.16  -0.11  -0.00    -0.00  -0.00  -0.01     0.10   0.14   0.12
   5   1     0.03   0.33   0.16     0.00   0.02   0.01     0.03   0.03   0.01
   6   1    -0.30  -0.14  -0.16     0.02   0.01   0.01     0.02   0.03   0.01
   7   8    -0.06   0.04   0.00    -0.00  -0.00   0.00     0.01   0.02  -0.03
   8   1     0.02  -0.01   0.00    -0.00  -0.00   0.00    -0.08  -0.11   0.08
   9   6    -0.17   0.12  -0.00     0.07   0.10  -0.05     0.15   0.22  -0.10
  10   1    -0.04  -0.28  -0.12     0.01  -0.18   0.04     0.04   0.06   0.13
  11   1     0.26   0.13   0.12    -0.17  -0.05   0.03     0.04   0.06   0.12
  12   6    -0.08   0.05  -0.00     0.10   0.14  -0.11     0.06   0.09  -0.34
  13   1    -0.01  -0.21  -0.22     0.01  -0.59   0.14     0.01  -0.02   0.24
  14   1     0.10  -0.07  -0.00     0.16   0.22   0.17    -0.24  -0.35  -0.40
  15   1     0.20   0.08   0.23    -0.56  -0.19   0.14    -0.03  -0.00   0.23
                     13                     14                     15
                        a                      a                      a 
 Frequencies --  1030.2549               949.3812              1161.5973
 Red. masses --    99.0000                99.0000                99.0000
 Frc consts  --    99.0000                99.0000                99.0000
 IR Inten    --    99.0000                99.0000                99.0000
 Raman Activ --     0.0000                 0.0000                 0.0000
 Depolar     --     0.0000                 0.0000                 0.0000
 Atom AN      X      Y      Z        X      Y      Z        X      Y      Z
   1   6    -0.16  -0.23  -0.44     0.13  -0.09   0.00    -0.26   0.18  -0.00
   2   1    -0.04  -0.06  -0.13    -0.11  -0.06   0.34     0.17   0.12   0.16
   3   1    -0.04  -0.06  -0.13     0.02   0.12  -0.33    -0.06  -0.20  -0.16
   4   6     0.29   0.41   0.01    -0.19   0.13   0.00     0.35  -0.25   0.00
   5   1     0.07   0.09   0.03    -0.04  -0.26  -0.10     0.08   0.33  -0.27
   6   1     0.06   0.09   0.03     0.23   0.12   0.10    -0.28  -0.19   0.27
   7   8    -0.06  -0.09   0.24     0.05  -0.04  -0.00    -0.13   0.09  -0.00
   8   1    -0.17  -0.24   0.24    -0.00   0.00   0.00    -0.01   0.01   0.00
   9   6    -0.11  -0.16  -0.16     0.05  -0.03  -0.00     0.19  -0.13   0.00
  10   1    -0.03  -0.05  -0.02     0.01   0.05  -0.33     0.04   0.14  -0.10
  11   1    -0.04  -0.05  -0.03    -0.04  -0.02   0.33    -0.12  -0.09   0.10
  12   6     0.08   0.11   0.26    -0.15   0.11  -0.00    -0.10   0.07  -0.00
  13   1     0.02   0.04   0.05    -0.03  -0.22  -0.25    -0.02  -0.09  -0.10
  14   1     0.04   0.06   0.10     0.11  -0.08  -0.00     0.05  -0.03  -0.00
  15   1     0.03   0.03   0.05     0.19   0.10   0.25     0.08   0.05   0.10
                     16                     17                     18
                        a                      a                      a 
 Frequencies --  1221.5013              1500.4312              1287.6597
 Red. masses --    99.0000                99.0000                99.0000
 Frc consts  --    99.0000                99.0000                99.0000
 IR Inten    --    99.0000                99.0000                99.0000
 Raman Activ --     0.0000                 0.0000                 0.0000
 Depolar     --     0.0000                 0.0000                 0.0000
 Atom AN      X      Y      Z        X      Y      Z        X      Y      Z
   1   6     0.14  -0.10   0.00     0.02   0.03  -0.01    -0.05  -0.07   0.31
   2   1    -0.08  -0.06   0.28    -0.14  -0.05   0.01    -0.00  -0.03  -0.44
   3   1     0.03   0.09  -0.28     0.00  -0.15   0.01    -0.02  -0.01  -0.44
   4   6     0.08  -0.06  -0.00    -0.08  -0.11  -0.02     0.13   0.18   0.05
   5   1     0.02   0.08  -0.29    -0.00   0.35   0.00     0.03   0.02  -0.05
   6   1    -0.07  -0.05   0.28     0.33   0.12   0.00     0.01   0.04  -0.05
   7   8    -0.06   0.05   0.00    -0.01  -0.01   0.02    -0.10  -0.15   0.01
   8   1    -0.01   0.00   0.00    -0.00  -0.00   0.00     0.16   0.23  -0.21
   9   6    -0.34   0.24   0.00    -0.13  -0.18   0.00    -0.05  -0.07   0.21
  10   1    -0.08  -0.23  -0.14    -0.01   0.55  -0.01    -0.02  -0.01  -0.31
  11   1     0.19   0.15   0.14     0.52   0.17  -0.01    -0.01  -0.02  -0.31
  12   6     0.25  -0.18  -0.00     0.02   0.03   0.00     0.07   0.11  -0.05
  13   1     0.05   0.20   0.21     0.00  -0.14  -0.00     0.01  -0.03   0.04
  14   1    -0.11   0.08  -0.00     0.01   0.02   0.02    -0.07  -0.10  -0.11
  15   1    -0.17  -0.11  -0.21    -0.13  -0.04   0.00    -0.03   0.00   0.04
                     19                     20                     21
                        a                      a                      a 
 Frequencies --  1128.1731              1105.0367              1078.3626
 Red. masses --    99.0000                99.0000                99.0000
 Frc consts  --    99.0000                99.0000                99.0000
 IR Inten    --    99.0000                99.0000                99.0000
 Raman Activ --     0.0000                 0.0000                 0.0000
 Depolar     --     0.0000                 0.0000                 0.0000
 Atom AN      X      Y      Z        X      Y      Z        X      Y      Z
   1   6     0.17   0.24  -0.39     0.04   0.05  -0.10     0.12   0.17   0.12
   2   1     0.04   0.06  -0.14     0.03   0.02  -0.08     0.03   0.05   0.25
   3   1     0.04   0.06  -0.14     0.01   0.03  -0.08     0.04   0.05   0.25
   4   6    -0.04  -0.06   0.19     0.15   0.21  -0.34     0.05   0.08  -0.54
   5   1    -0.00   0.01   0.16     0.03   0.03  -0.08     0.00  -0.00  -0.05
   6   1     0.01  -0.00   0.16     0.02   0.04  -0.08    -0.00  -0.00  -0.05
   7   8     0.04   0.06  -0.09    -0.12  -0.17   0.26    -0.19  -0.27   0.32
   8   1     0.08   0.11  -0.10    -0.04  -0.05   0.07     0.12   0.17  -0.12
   9   6    -0.23  -0.33   0.26     0.14   0.20   0.48    -0.13  -0.18  -0.16
  10   1    -0.06  -0.08   0.29     0.04   0.05   0.21    -0.03  -0.04   0.00
  11   1    -0.06  -0.08   0.29     0.04   0.05   0.21    -0.03  -0.05   0.00
  12   6     0.08   0.11  -0.14    -0.19  -0.27  -0.28     0.14   0.20   0.06
  13   1     0.01  -0.02   0.17    -0.05  -0.07  -0.18     0.03   0.03   0.18
  14   1    -0.12  -0.17  -0.19     0.00   0.00  -0.02    -0.07  -0.09  -0.10
  15   1    -0.02   0.01   0.17    -0.05  -0.07  -0.18     0.02   0.04   0.18
                     22                     23                     24
                        a                      a                      a 
 Frequencies --  1494.8100              1280.7699              1217.6686
 Red. masses --    99.0000                99.0000                99.0000
 Frc consts  --    99.0000                99.0000                99.0000
 IR Inten    --    99.0000                99.0000                99.0000
 Raman Activ --     0.0000                 0.0000                 0.0000
 Depolar     --     0.0000                 0.0000                 0.0000
 Atom AN      X      Y      Z        X      Y      Z        X      Y      Z
   1   6    -0.10  -0.14  -0.02     0.24  -0.17  -0.00    -0.16  -0.22  -0.19
   2   1     0.37   0.12   0.02    -0.12  -0.11  -0.18    -0.04  -0.05   0.13
   3   1    -0.01   0.39   0.02     0.06   0.15   0.18    -0.04  -0.05   0.13
   4   6     0.09   0.13   0.04    -0.09   0.06  -0.00     0.11   0.16   0.08
   5   1     0.00  -0.42  -0.01    -0.01  -0.02  -0.49     0.03   0.05   0.35
   6   1    -0.39  -0.14  -0.01     0.02   0.02   0.49     0.03   0.04   0.35
   7   8     0.01   0.02  -0.02    -0.06   0.04   0.00    -0.09  -0.13  -0.04
   8   1     0.00   0.01  -0.01    -0.02   0.01   0.00     0.30   0.43  -0.38
   9   6    -0.08  -0.11  -0.02     0.04  -0.03   0.00     0.10   0.15  -0.08
  10   1    -0.01   0.32   0.01     0.01   0.02   0.34     0.03   0.03   0.07
  11   1     0.31   0.10   0.01    -0.01  -0.02  -0.34     0.02   0.03   0.07
  12   6     0.03   0.04  -0.01    -0.13   0.09  -0.00    -0.07  -0.10   0.06
  13   1     0.00  -0.17   0.02    -0.03  -0.09  -0.09    -0.01   0.01  -0.09
  14   1     0.03   0.05   0.04     0.05  -0.03   0.00     0.05   0.08   0.10
  15   1    -0.16  -0.05   0.02     0.07   0.05   0.09     0.01  -0.01  -0.09
                     25                     26                     27
                        a                      a                      a 
 Frequencies --  1493.5447              1384.1539              1357.3922
 Red. masses --    99.0000                99.0000                99.0000
 Frc consts  --    99.0000                99.0000                99.0000
 IR Inten    --    99.0000                99.0000                99.0000
 Raman Activ --     0.0000                 0.0000                 0.0000
 Depolar     --     0.0000                 0.0000                 0.0000
 Atom AN      X      Y      Z        X      Y      Z        X      Y      Z
   1   6     0.13   0.18  -0.02     0.01   0.01  -0.34     0.03   0.04   0.25
   2   1    -0.50  -0.16   0.02    -0.02   0.00   0.25    -0.03  -0.01  -0.22
   3   1     0.02  -0.52   0.02     0.01  -0.02   0.25     0.00  -0.03  -0.22
   4   6     0.10   0.14  -0.00     0.05   0.07   0.42     0.05   0.08   0.16
   5   1     0.00  -0.41   0.03     0.02   0.03  -0.46     0.02   0.01  -0.26
   6   1    -0.39  -0.13   0.03     0.02   0.03  -0.46     0.00   0.02  -0.26
   7   8     0.02   0.02  -0.01    -0.09  -0.12   0.01    -0.07  -0.10   0.01
   8   1    -0.00  -0.00   0.01     0.11   0.16  -0.15     0.08   0.12  -0.11
   9   6    -0.03  -0.04   0.03     0.01   0.02   0.18    -0.01  -0.01  -0.45
  10   1    -0.00   0.13  -0.02     0.00  -0.01  -0.12     0.00   0.03   0.42
  11   1     0.12   0.04  -0.02    -0.01  -0.00  -0.12     0.03   0.01   0.42
  12   6    -0.00  -0.01   0.01     0.00   0.00  -0.04    -0.06  -0.08   0.05
  13   1    -0.00   0.03  -0.02     0.00  -0.01   0.02    -0.01   0.07   0.01
  14   1    -0.02  -0.02  -0.02     0.00   0.00  -0.01     0.07   0.10   0.11
  15   1     0.03   0.01  -0.02    -0.01  -0.00   0.02     0.07   0.01   0.01
                     28                     29                     30
                        a                      a                      a 
 Frequencies --  1270.4187              1416.0146              2962.8358
 Red. masses --    99.0000                99.0000                99.0000
 Frc consts  --    99.0000                99.0000                99.0000
 IR Inten    --    99.0000                99.0000                99.0000
 Raman Activ --     0.0000                 0.0000                 0.0000
 Depolar     --     0.0000                 0.0000                 0.0000
 Atom AN      X      Y      Z        X      Y      Z        X      Y      Z
   1   6     0.06  -0.04  -0.00     0.01   0.02   0.00    -0.06   0.04  -0.00
   2   1    -0.02  -0.01   0.45     0.00   0.01   0.01     0.05  -0.17   0.00
   3   1     0.01   0.02  -0.45     0.00   0.00   0.01     0.18   0.01  -0.00
   4   6     0.10  -0.07  -0.00    -0.00  -0.00   0.03    -0.00   0.00  -0.00
   5   1     0.02   0.05   0.21     0.00   0.00  -0.04    -0.00  -0.00  -0.00
   6   1    -0.04  -0.04  -0.21     0.00   0.00  -0.04     0.00   0.00   0.00
   7   8     0.01  -0.01  -0.00    -0.01  -0.01   0.00    -0.00   0.00  -0.00
   8   1     0.01  -0.01  -0.00     0.01   0.01  -0.01     0.00  -0.00   0.00
   9   6    -0.08   0.06  -0.00     0.00   0.00  -0.08     0.23  -0.16   0.00
  10   1    -0.02  -0.05   0.46    -0.00  -0.05   0.08    -0.65  -0.03   0.00
  11   1     0.04   0.03  -0.46    -0.05  -0.02   0.08    -0.19   0.62  -0.01
  12   6    -0.11   0.08  -0.00     0.13   0.18   0.37    -0.02   0.01  -0.00
  13   1    -0.03  -0.07  -0.08     0.02  -0.22  -0.46     0.07   0.00   0.00
  14   1     0.01  -0.01   0.00    -0.25  -0.35  -0.27    -0.00   0.00  -0.00
  15   1     0.05   0.05   0.08    -0.22  -0.05  -0.46     0.02  -0.06  -0.00
                     31                     32                     33
                        a                      a                      a 
 Frequencies --  2848.6198              2989.4573              2882.5620
 Red. masses --    99.0000                99.0000                99.0000
 Frc consts  --    99.0000                99.0000                99.0000
 IR Inten    --    99.0000                99.0000                99.0000
 Raman Activ --     0.0000                 0.0000                 0.0000
 Depolar     --     0.0000                 0.0000                 0.0000
 Atom AN      X      Y      Z        X      Y      Z        X      Y      Z
   1   6    -0.01   0.00   0.00    -0.24   0.17  -0.00     0.00   0.00  -0.00
   2   1     0.01  -0.04  -0.00     0.19  -0.62   0.01     0.01  -0.03   0.00
   3   1     0.04   0.00   0.00     0.65   0.02  -0.01    -0.03   0.00   0.00
   4   6     0.24  -0.17   0.00    -0.02   0.01  -0.00    -0.11  -0.16  -0.02
   5   1    -0.67  -0.03  -0.01     0.04  -0.00  -0.00     0.69  -0.04   0.00
   6   1    -0.20   0.64   0.01     0.01  -0.04   0.00    -0.26   0.64   0.00
   7   8     0.01  -0.00   0.00     0.00  -0.00  -0.00    -0.01  -0.01   0.02
   8   1    -0.00   0.00  -0.00    -0.00   0.00   0.00    -0.00  -0.00   0.00
   9   6    -0.01   0.00  -0.00    -0.07   0.05  -0.00     0.00   0.01   0.00
  10   1     0.01  -0.00   0.00     0.17   0.00  -0.00    -0.02   0.00  -0.00
  11   1     0.00  -0.01  -0.00     0.05  -0.16   0.00     0.01  -0.02  -0.00
  12   6    -0.00   0.00  -0.00     0.02  -0.01   0.00     0.00   0.00  -0.00
  13   1     0.00  -0.00  -0.00    -0.05  -0.00   0.00    -0.00   0.00   0.00
  14   1    -0.00   0.00   0.00     0.00  -0.00  -0.00    -0.00  -0.00   0.00
  15   1     0.00  -0.00   0.00    -0.02   0.05  -0.00     0.00  -0.00   0.00
                     34                     35                     36
                        a                      a                      a 
 Frequencies --  3000.0869              3035.4289              2978.8511
 Red. masses --    99.0000                99.0000                99.0000
 Frc consts  --    99.0000                99.0000                99.0000
 IR Inten    --    99.0000                99.0000                99.0000
 Raman Activ --     0.0000                 0.0000                 0.0000
 Depolar     --     0.0000                 0.0000                 0.0000
 Atom AN      X      Y      Z        X      Y      Z        X      Y      Z
   1   6    -0.12  -0.17   0.01     0.01   0.00  -0.00     0.02   0.03   0.00
   2   1    -0.25   0.63  -0.01     0.01  -0.01   0.00     0.05  -0.12   0.00
   3   1     0.67  -0.02  -0.01    -0.06   0.00   0.00    -0.12   0.00   0.00
   4   6    -0.01  -0.01  -0.00     0.00   0.00   0.00    -0.00  -0.00  -0.00
   5   1     0.03  -0.00   0.00    -0.01   0.00  -0.00     0.02  -0.00   0.00
   6   1    -0.01   0.03   0.00     0.00  -0.00   0.00    -0.01   0.02   0.00
   7   8     0.00   0.00   0.00    -0.00  -0.00  -0.00    -0.00  -0.00  -0.00
   8   1    -0.00  -0.00  -0.01     0.00   0.00   0.00     0.00   0.00   0.00
   9   6    -0.02  -0.03   0.00     0.03  -0.00  -0.00    -0.12  -0.16   0.00
  10   1     0.12  -0.00  -0.00    -0.10   0.00   0.00     0.68  -0.02  -0.00
  11   1    -0.04   0.11  -0.00    -0.00   0.01  -0.00    -0.25   0.63  -0.00
  12   6     0.02   0.02  -0.01     0.26   0.00  -0.12     0.01   0.01  -0.01
  13   1    -0.06   0.00  -0.00    -0.71  -0.00  -0.02    -0.05   0.00  -0.00
  14   1    -0.02  -0.03   0.05    -0.16  -0.28   0.46    -0.02  -0.02   0.04
  15   1     0.02  -0.06  -0.00    -0.06   0.28  -0.02     0.02  -0.04  -0.00
                     37                     38                     39
                        a                      a                      a 
 Frequencies --  3035.3983              3040.9191              3564.5718
 Red. masses --    99.0000                99.0000                99.0000
 Frc consts  --    99.0000                99.0000                99.0000
 IR Inten    --    99.0000                99.0000                99.0000
 Raman Activ --     0.0000                 0.0000                 0.0000
 Depolar     --     0.0000                 0.0000                 0.0000
 Atom AN      X      Y      Z        X      Y      Z        X      Y      Z
   1   6     0.00  -0.01   0.00    -0.00  -0.01   0.00     0.00   0.00  -0.00
   2   1    -0.02   0.06  -0.00    -0.01   0.03  -0.00    -0.00   0.00   0.00
   3   1     0.02  -0.00  -0.00     0.03  -0.00  -0.00     0.01  -0.00   0.00
   4   6     0.00  -0.00  -0.00    -0.00  -0.00   0.00    -0.00  -0.00  -0.00
   5   1     0.00  -0.00   0.00     0.00  -0.00   0.00     0.00   0.00   0.00
   6   1    -0.00   0.01   0.00    -0.00   0.00   0.00     0.00   0.00   0.00
   7   8     0.00   0.00   0.00     0.00   0.00   0.00    -0.08  -0.11  -0.20
   8   1    -0.00  -0.00  -0.00    -0.00  -0.00  -0.00     0.31   0.44   0.81
   9   6     0.01  -0.03   0.00    -0.01  -0.01  -0.00    -0.00  -0.00  -0.00
  10   1    -0.00  -0.00   0.00     0.03  -0.00  -0.00    -0.00   0.00  -0.00
  11   1    -0.03   0.09  -0.00    -0.01   0.02  -0.00     0.00  -0.00  -0.00
  12   6     0.06  -0.25   0.13    -0.06  -0.09  -0.10    -0.00  -0.00  -0.00
  13   1    -0.22  -0.04   0.02     0.61  -0.01  -0.01     0.00   0.00   0.00
  14   1     0.23   0.27  -0.51    -0.17  -0.24   0.38     0.00  -0.00  -0.00
  15   1    -0.23   0.64   0.02    -0.21   0.57  -0.01    -0.00   0.00   0.00
