 Entering Gaussian System
 *********************************************
 Gaussian 98:
 frequency output generated by the xtb code
 *********************************************
                         Standard orientation:
 --------------------------------------------------------------------
  Center     Atomic     Atomic              Coordinates (Angstroms)
  Number     Number      Type              X           Y           Z
 --------------------------------------------------------------------
    1          6             0       -0.782198   -0.813808    0.555564
    2          1             0       -0.420099   -1.836323    0.555706
    3          1             0       -0.442603   -0.301399    1.454381
    4          1             0       -1.870870   -0.807478    0.578908
    5          6             0       -0.313420   -0.053995   -0.648765
    6          1             0        0.318886   -0.639976   -1.345210
    7          8             0       -0.575768    1.091800   -0.879976
 --------------------------------------------------------------------
     1 basis functions        1 primitive gaussians
     1 alpha electrons        1 beta electrons
 
 Harmonic frequencies (cm**-1), IR intensities (KM/Mole),
 Raman scattering activities (A**4/amu), Raman depolarization ratios,
 reduced masses (AMU), force constants (mDyne/A) and normal coordinates:
                      1                      2                      3
                        a                      a                      a 
 Frequencies --  -165.0799               510.0428               728.8382
 Red. masses --     3.1693                10.1154                 3.0752
 Frc consts  --     0.0000                 0.0000                 0.0000
 IR Inten    --     0.2635                 0.5819                 0.0535
 Raman Activ --     0.0000                 0.0000                 0.0000
 Depolar     --     0.0000                 0.0000                 0.0000
 Atom AN      X      Y      Z        X      Y      Z        X      Y      Z
   1   6     0.07   0.03   0.05     0.00  -0.33   0.19    -0.16  -0.06  -0.10
   2   1     0.39   0.14   0.24     0.15  -0.05  -0.21     0.20   0.07   0.12
   3   1    -0.38   0.28   0.01     0.01  -0.28   0.15     0.24   0.28  -0.29
   4   1     0.01  -0.42  -0.23     0.00  -0.28   0.14    -0.02  -0.21   0.42
   5   6    -0.24  -0.09  -0.15    -0.27   0.24   0.30    -0.27  -0.09  -0.16
   6   1    -0.32  -0.11  -0.19    -0.08  -0.02   0.15     0.46   0.16   0.28
   7   8     0.22   0.08   0.14     0.21   0.24  -0.48     0.15   0.05   0.09
                      4                      5                      6
                        a                      a                      a 
 Frequencies --   990.9939              1053.2256              1079.7558
 Red. masses --     8.1084                 5.8275                 7.0324
 Frc consts  --     0.0000                 0.0000                 0.0000
 IR Inten    --     0.6029                 0.2952                 0.9677
 Raman Activ --     0.0000                 0.0000                 0.0000
 Depolar     --     0.0000                 0.0000                 0.0000
 Atom AN      X      Y      Z        X      Y      Z        X      Y      Z
   1   6    -0.07  -0.46   0.38    -0.29  -0.10  -0.18     0.28  -0.21  -0.33
   2   1    -0.22  -0.20   0.48     0.14   0.05   0.09    -0.15  -0.12   0.32
   3   1    -0.05   0.09  -0.01     0.20   0.19  -0.26     0.00   0.30  -0.25
   4   1    -0.02   0.10   0.01    -0.06  -0.14   0.35     0.07   0.32  -0.21
   5   6     0.17   0.11  -0.35     0.44   0.15   0.27    -0.29   0.03   0.46
   6   1     0.05   0.14  -0.17    -0.40  -0.14  -0.25    -0.07  -0.00   0.12
   7   8    -0.03   0.27  -0.10    -0.10  -0.03  -0.06     0.05   0.03  -0.10
                      7                      8                      9
                        a                      a                      a 
 Frequencies --  1353.1133              1399.7340              1445.5430
 Red. masses --     2.9420                 2.6021                 1.5889
 Frc consts  --     0.0000                 0.0000                 0.0000
 IR Inten    --     0.2052                 0.5126                 0.0804
 Raman Activ --     0.0000                 0.0000                 0.0000
 Depolar     --     0.0000                 0.0000                 0.0000
 Atom AN      X      Y      Z        X      Y      Z        X      Y      Z
   1   6    -0.17  -0.09   0.33     0.05   0.11  -0.15    -0.18  -0.07  -0.11
   2   1     0.18   0.07  -0.34    -0.07  -0.00   0.12     0.60   0.21   0.36
   3   1     0.35   0.23  -0.23    -0.24  -0.12   0.16     0.15  -0.40   0.15
   4   1    -0.03   0.09  -0.47     0.01  -0.03   0.31    -0.02   0.45  -0.07
   5   6    -0.05  -0.03   0.10    -0.09  -0.07   0.19    -0.04  -0.01  -0.02
   6   1     0.03   0.37  -0.26     0.05   0.66  -0.47     0.01   0.00   0.00
   7   8     0.06  -0.09  -0.04     0.10  -0.17  -0.07     0.01   0.00   0.01
                     10                     11                     12
                        a                      a                      a 
 Frequencies --  1454.0857              1791.3095              2755.7964
 Red. masses --     1.8293                13.4617                 1.6835
 Frc consts  --     0.0000                 0.0000                 0.0000
 IR Inten    --     0.1015                 1.9514                 0.5516
 Raman Activ --     0.0000                 0.0000                 0.0000
 Depolar     --     0.0000                 0.0000                 0.0000
 Atom AN      X      Y      Z        X      Y      Z        X      Y      Z
   1   6    -0.04   0.24  -0.08     0.00  -0.05   0.02     0.00   0.00  -0.00
   2   1    -0.24  -0.06   0.43    -0.02  -0.01   0.04     0.00  -0.01   0.00
   3   1     0.49  -0.32  -0.00    -0.01   0.02  -0.01    -0.00  -0.01  -0.02
   4   1    -0.01  -0.49  -0.31     0.00   0.02   0.00     0.02   0.00  -0.00
   5   6    -0.04   0.01   0.06    -0.14   0.74  -0.19     0.14  -0.12  -0.16
   6   1    -0.00   0.04  -0.02    -0.04   0.00   0.06    -0.55   0.52   0.61
   7   8     0.01  -0.02  -0.01     0.14  -0.60   0.12     0.01  -0.02  -0.00
                     13                     14                     15
                        a                      a                      a 
 Frequencies --  3018.7399              3030.0129              3069.2059
 Red. masses --     1.9346                 1.4241                 1.8122
 Frc consts  --     0.0000                 0.0000                 0.0000
 IR Inten    --     0.0396                 0.0652                 0.1413
 Raman Activ --     0.0000                 0.0000                 0.0000
 Depolar     --     0.0000                 0.0000                 0.0000
 Atom AN      X      Y      Z        X      Y      Z        X      Y      Z
   1   6    -0.24  -0.08  -0.14     0.11  -0.06  -0.15     0.10  -0.25  -0.02
   2   1    -0.03  -0.01  -0.02     0.05  -0.12  -0.02    -0.32   0.90   0.01
   3   1     0.19   0.32   0.56     0.24   0.33   0.56     0.04   0.01   0.06
   4   1     0.68  -0.02  -0.03    -0.68  -0.00  -0.01    -0.07  -0.03  -0.00
   5   6    -0.01  -0.00  -0.00     0.01   0.00  -0.01     0.01  -0.01  -0.00
   6   1     0.00  -0.00  -0.00    -0.01   0.01   0.01    -0.01   0.01   0.01
   7   8     0.00   0.00   0.00     0.00  -0.00   0.00    -0.00   0.00   0.00
