 Entering Gaussian System
 *********************************************
 Gaussian 98:
 frequency output generated by the xtb code
 *********************************************
                         Standard orientation:
 --------------------------------------------------------------------
  Center     Atomic     Atomic              Coordinates (Angstroms)
  Number     Number      Type              X           Y           Z
 --------------------------------------------------------------------
    1          6             0       -0.782196   -0.813813    0.555560
    2          1             0       -0.420092   -1.836326    0.555702
    3          1             0       -0.442606   -0.301403    1.454379
    4          1             0       -1.870867   -0.807489    0.578900
    5          6             0       -0.313418   -0.053996   -0.648767
    6          1             0        0.318894   -0.639972   -1.345210
    7          8             0       -0.575770    1.091798   -0.879976
 --------------------------------------------------------------------
     1 basis functions        1 primitive gaussians
     1 alpha electrons        1 beta electrons
 
 Harmonic frequencies (cm**-1), IR intensities (KM/Mole),
 Raman scattering activities (A**4/amu), Raman depolarization ratios,
 reduced masses (AMU), force constants (mDyne/A) and normal coordinates:
                      1                      2                      3
                        a                      a                      a 
 Frequencies --  -165.0799               728.8382              1053.2256
 Red. masses --    99.0000                99.0000                99.0000
 Frc consts  --    99.0000                99.0000                99.0000
 IR Inten    --    99.0000                99.0000                99.0000
 Raman Activ --     0.0000                 0.0000                 0.0000
 Depolar     --     0.0000                 0.0000                 0.0000
 Atom AN      X      Y      Z        X      Y      Z        X      Y      Z
   1   6     0.07   0.03   0.05    -0.16  -0.06  -0.10    -0.29  -0.10  -0.18
   2   1     0.39   0.14   0.24     0.20   0.07   0.12     0.14   0.05   0.09
   3   1    -0.38   0.28   0.01     0.24   0.28  -0.29     0.20   0.19  -0.26
   4   1     0.01  -0.42  -0.23    -0.02  -0.21   0.42    -0.06  -0.14   0.35
   5   6    -0.24  -0.09  -0.15    -0.27  -0.09  -0.16     0.44   0.15   0.27
   6   1    -0.32  -0.11  -0.19     0.46   0.16   0.28    -0.40  -0.14  -0.25
   7   8     0.22   0.08   0.14     0.15   0.05   0.09    -0.10  -0.03  -0.06
                      4                      5                      6
                        a                      a                      a 
 Frequencies --   510.0428              1353.1133               990.9939
 Red. masses --    99.0000                99.0000                99.0000
 Frc consts  --    99.0000                99.0000                99.0000
 IR Inten    --    99.0000                99.0000                99.0000
 Raman Activ --     0.0000                 0.0000                 0.0000
 Depolar     --     0.0000                 0.0000                 0.0000
 Atom AN      X      Y      Z        X      Y      Z        X      Y      Z
   1   6     0.00  -0.33   0.19    -0.17  -0.09   0.33    -0.07  -0.46   0.38
   2   1     0.15  -0.05  -0.21     0.18   0.07  -0.34    -0.22  -0.20   0.48
   3   1     0.01  -0.28   0.15     0.35   0.23  -0.23    -0.05   0.09  -0.01
   4   1     0.00  -0.28   0.14    -0.03   0.09  -0.47    -0.02   0.10   0.01
   5   6    -0.27   0.24   0.30    -0.05  -0.03   0.10     0.17   0.11  -0.35
   6   1    -0.08  -0.02   0.15     0.03   0.37  -0.26     0.05   0.14  -0.17
   7   8     0.21   0.24  -0.48     0.06  -0.09  -0.04    -0.03   0.27  -0.10
                      7                      8                      9
                        a                      a                      a 
 Frequencies --  1079.7558              1399.7340              1445.5430
 Red. masses --    99.0000                99.0000                99.0000
 Frc consts  --    99.0000                99.0000                99.0000
 IR Inten    --    99.0000                99.0000                99.0000
 Raman Activ --     0.0000                 0.0000                 0.0000
 Depolar     --     0.0000                 0.0000                 0.0000
 Atom AN      X      Y      Z        X      Y      Z        X      Y      Z
   1   6     0.28  -0.21  -0.33     0.05   0.11  -0.15    -0.18  -0.07  -0.11
   2   1    -0.15  -0.12   0.32    -0.07  -0.00   0.12     0.60   0.21   0.36
   3   1     0.00   0.30  -0.25    -0.24  -0.12   0.16     0.15  -0.40   0.15
   4   1     0.07   0.32  -0.21     0.01  -0.03   0.31    -0.02   0.45  -0.07
   5   6    -0.29   0.03   0.46    -0.09  -0.07   0.19    -0.04  -0.01  -0.02
   6   1    -0.07  -0.00   0.12     0.05   0.66  -0.47     0.01   0.00   0.00
   7   8     0.05   0.03  -0.10     0.10  -0.17  -0.07     0.01   0.00   0.01
                     10                     11                     12
                        a                      a                      a 
 Frequencies --  1454.0857              1791.3095              3018.7399
 Red. masses --    99.0000                99.0000                99.0000
 Frc consts  --    99.0000                99.0000                99.0000
 IR Inten    --    99.0000                99.0000                99.0000
 Raman Activ --     0.0000                 0.0000                 0.0000
 Depolar     --     0.0000                 0.0000                 0.0000
 Atom AN      X      Y      Z        X      Y      Z        X      Y      Z
   1   6    -0.04   0.24  -0.08     0.00  -0.05   0.02    -0.24  -0.08  -0.14
   2   1    -0.24  -0.06   0.43    -0.02  -0.01   0.04    -0.03  -0.01  -0.02
   3   1     0.49  -0.32  -0.00    -0.01   0.02  -0.01     0.19   0.32   0.56
   4   1    -0.01  -0.49  -0.31     0.00   0.02   0.00     0.68  -0.02  -0.03
   5   6    -0.04   0.01   0.06    -0.14   0.74  -0.19    -0.01  -0.00  -0.00
   6   1    -0.00   0.04  -0.02    -0.04   0.00   0.06     0.00  -0.00  -0.00
   7   8     0.01  -0.02  -0.01     0.14  -0.60   0.12     0.00   0.00   0.00
                     13                     14                     15
                        a                      a                      a 
 Frequencies --  2755.7964              3030.0129              3069.2059
 Red. masses --    99.0000                99.0000                99.0000
 Frc consts  --    99.0000                99.0000                99.0000
 IR Inten    --    99.0000                99.0000                99.0000
 Raman Activ --     0.0000                 0.0000                 0.0000
 Depolar     --     0.0000                 0.0000                 0.0000
 Atom AN      X      Y      Z        X      Y      Z        X      Y      Z
   1   6     0.00   0.00  -0.00     0.11  -0.06  -0.15     0.10  -0.25  -0.02
   2   1     0.00  -0.01   0.00     0.05  -0.12  -0.02    -0.32   0.90   0.01
   3   1    -0.00  -0.01  -0.02     0.24   0.33   0.56     0.04   0.01   0.06
   4   1     0.02   0.00  -0.00    -0.68  -0.00  -0.01    -0.07  -0.03  -0.00
   5   6     0.14  -0.12  -0.16     0.01   0.00  -0.01     0.01  -0.01  -0.00
   6   1    -0.55   0.52   0.61    -0.01   0.01   0.01    -0.01   0.01   0.01
   7   8     0.01  -0.02  -0.00     0.00  -0.00   0.00    -0.00   0.00   0.00
