 Entering Gaussian System
 *********************************************
 Gaussian 98:
 frequency output generated by the xtb code
 *********************************************
                         Standard orientation:
 --------------------------------------------------------------------
  Center     Atomic     Atomic              Coordinates (Angstroms)
  Number     Number      Type              X           Y           Z
 --------------------------------------------------------------------
    1          6             0        2.089578    0.991244   -0.519857
    2          1             0        2.439455   -0.038287   -0.493818
    3          1             0        2.465210    1.522872    0.350197
    4          1             0        1.002270    0.978307   -0.494273
    5          6             0        2.096238    0.995773   -3.061785
    6          1             0        1.003748    0.971950   -3.050364
    7          1             0        2.441971   -0.040827   -3.048902
    8          6             0        2.599398    1.708415   -4.309694
    9          1             0        3.686171    1.724768   -4.319533
   10          1             0        2.246151    1.205352   -5.206397
   11          1             0        2.248513    2.737097   -4.321115
   12          6             0        2.566239    1.664963   -1.785572
   13          8             0        3.259424    2.648490   -1.775720
 --------------------------------------------------------------------
     1 basis functions        1 primitive gaussians
     1 alpha electrons        1 beta electrons
 
 Harmonic frequencies (cm**-1), IR intensities (KM/Mole),
 Raman scattering activities (A**4/amu), Raman depolarization ratios,
 reduced masses (AMU), force constants (mDyne/A) and normal coordinates:
                      1                      2                      3
                        a                      a                      a 
 Frequencies --   -51.0632                80.7551               177.7460
 Red. masses --     3.8804                 4.8669                 2.2530
 Frc consts  --     0.0000                 0.0000                 0.0000
 IR Inten    --     0.0093                 0.0787                 0.0640
 Raman Activ --     0.0000                 0.0000                 0.0000
 Depolar     --     0.0000                 0.0000                 0.0000
 Atom AN      X      Y      Z        X      Y      Z        X      Y      Z
   1   6     0.19  -0.13   0.00     0.22  -0.15   0.00     0.10  -0.07   0.00
   2   1     0.43   0.09   0.11    -0.28  -0.16  -0.21     0.02  -0.03  -0.05
   3   1    -0.21   0.15  -0.00     0.39  -0.28   0.00     0.08  -0.06   0.00
   4   1     0.06  -0.44  -0.11     0.06   0.32   0.21     0.03  -0.01   0.05
   5   6    -0.29   0.20  -0.00    -0.14   0.10  -0.00    -0.22   0.16  -0.00
   6   1    -0.09   0.25  -0.03    -0.05   0.16  -0.02    -0.06   0.11  -0.02
   7   1    -0.27  -0.00   0.03    -0.17  -0.01   0.02    -0.13   0.02   0.02
   8   6     0.21  -0.15   0.00     0.23  -0.16   0.00     0.08  -0.06  -0.00
   9   1     0.06  -0.24   0.01     0.07  -0.23  -0.01     0.02   0.38   0.32
  10   1    -0.02   0.02  -0.00    -0.03   0.02  -0.00     0.47  -0.33   0.00
  11   1     0.25   0.02  -0.01     0.24   0.01   0.01    -0.35  -0.15  -0.32
  12   6    -0.07   0.05  -0.00    -0.04   0.03  -0.00    -0.06   0.04  -0.00
  13   8    -0.08   0.06  -0.00    -0.29   0.20  -0.00     0.07  -0.05   0.00
                      4                      5                      6
                        a                      a                      a 
 Frequencies --   233.2726               395.9281               476.8634
 Red. masses --    10.3643                 9.5282                 7.4903
 Frc consts  --     0.0000                 0.0000                 0.0000
 IR Inten    --     0.2578                 0.2452                 0.2509
 Raman Activ --     0.0000                 0.0000                 0.0000
 Depolar     --     0.0000                 0.0000                 0.0000
 Atom AN      X      Y      Z        X      Y      Z        X      Y      Z
   1   6     0.11   0.15   0.18    -0.14  -0.20  -0.37     0.05  -0.04   0.00
   2   1     0.03   0.05   0.12    -0.05  -0.06  -0.25     0.15   0.03  -0.22
   3   1     0.08   0.12  -0.02    -0.15  -0.22   0.04     0.15  -0.11  -0.00
   4   1     0.03   0.05   0.12    -0.04  -0.07  -0.25     0.02  -0.15   0.22
   5   6    -0.13  -0.18  -0.06    -0.06  -0.08   0.29    -0.03   0.02   0.00
   6   1    -0.04  -0.05  -0.07    -0.02  -0.02   0.11     0.00  -0.33  -0.13
   7   1    -0.03  -0.05  -0.07    -0.01  -0.02   0.11     0.31   0.11   0.13
   8   6     0.22   0.31   0.36    -0.04  -0.06   0.42     0.05  -0.04   0.00
   9   1     0.06   0.10   0.21    -0.01  -0.01   0.16     0.02  -0.09   0.00
  10   1     0.15   0.21   0.00     0.02   0.02   0.09    -0.02   0.01   0.00
  11   1     0.07   0.09   0.21    -0.01  -0.01   0.16     0.09   0.01  -0.00
  12   6    -0.13  -0.19  -0.07     0.14   0.19  -0.01    -0.56   0.39  -0.00
  13   8    -0.15  -0.21  -0.48     0.16   0.22  -0.33     0.24  -0.17  -0.00
                      7                      8                      9
                        a                      a                      a 
 Frequencies --   580.4890               772.3969               811.9342
 Red. masses --    11.0569                 3.4674                 9.1425
 Frc consts  --     0.0000                 0.0000                 0.0000
 IR Inten    --     0.4085                 0.1416                 0.2590
 Raman Activ --     0.0000                 0.0000                 0.0000
 Depolar     --     0.0000                 0.0000                 0.0000
 Atom AN      X      Y      Z        X      Y      Z        X      Y      Z
   1   6    -0.18  -0.25   0.39     0.11  -0.08  -0.00    -0.06  -0.08   0.35
   2   1    -0.06  -0.08   0.03    -0.12  -0.06   0.22    -0.03  -0.03  -0.03
   3   1    -0.11  -0.16   0.19    -0.10   0.07  -0.00    -0.12  -0.17   0.24
   4   1    -0.05  -0.08   0.03     0.02   0.14  -0.22    -0.02  -0.04  -0.03
   5   6     0.20   0.28   0.11    -0.31   0.22   0.00    -0.26  -0.37  -0.32
   6   1     0.06   0.07  -0.01    -0.06  -0.44   0.05    -0.07  -0.09  -0.08
   7   1     0.05   0.08  -0.01     0.39   0.21  -0.05    -0.06  -0.10  -0.08
   8   6     0.06   0.09  -0.19    -0.05   0.03   0.00    -0.02  -0.03  -0.22
   9   1     0.01   0.02  -0.17    -0.00  -0.24   0.23    -0.00   0.01   0.13
  10   1    -0.07  -0.10   0.05     0.10  -0.07   0.00     0.15   0.22  -0.24
  11   1     0.01   0.02  -0.17     0.22   0.08  -0.23     0.01   0.00   0.13
  12   6    -0.01  -0.02   0.32     0.18  -0.13   0.00     0.14   0.20   0.12
  13   8    -0.02  -0.02  -0.53    -0.05   0.04  -0.00     0.20   0.29   0.04
                     10                     11                     12
                        a                      a                      a 
 Frequencies --   936.7386               968.6630              1039.8980
 Red. masses --     3.0775                 6.1171                 6.0119
 Frc consts  --     0.0000                 0.0000                 0.0000
 IR Inten    --     0.2167                 0.5037                 0.2918
 Raman Activ --     0.0000                 0.0000                 0.0000
 Depolar     --     0.0000                 0.0000                 0.0000
 Atom AN      X      Y      Z        X      Y      Z        X      Y      Z
   1   6    -0.26   0.18  -0.00    -0.28  -0.39   0.08    -0.06  -0.08   0.15
   2   1     0.21   0.13  -0.35    -0.03  -0.08   0.39    -0.02  -0.02   0.06
   3   1     0.14  -0.10  -0.00     0.15   0.21  -0.26    -0.01  -0.02   0.04
   4   1    -0.05  -0.24   0.35    -0.06  -0.05   0.39    -0.01  -0.02   0.06
   5   6     0.06  -0.04   0.00     0.07   0.10  -0.01    -0.03  -0.04  -0.35
   6   1     0.02  -0.01   0.34     0.02   0.02   0.16    -0.01  -0.00  -0.33
   7   1     0.02  -0.01  -0.34     0.01   0.03   0.16    -0.00  -0.01  -0.33
   8   6    -0.11   0.08  -0.00    -0.06  -0.08   0.02    -0.00   0.00   0.45
   9   1    -0.02  -0.19   0.21    -0.01  -0.00   0.12    -0.01  -0.06  -0.15
  10   1     0.10  -0.07   0.00     0.06   0.09  -0.08    -0.22  -0.31   0.37
  11   1     0.17   0.08  -0.21    -0.00  -0.01   0.12    -0.05  -0.03  -0.15
  12   6     0.20  -0.14  -0.00     0.07   0.10  -0.33     0.05   0.07  -0.18
  13   8    -0.04   0.03  -0.00     0.13   0.19  -0.04     0.11   0.16   0.05
                     13                     14                     15
                        a                      a                      a 
 Frequencies --  1084.5552              1111.1386              1155.9856
 Red. masses --     5.8774                 8.4139                 8.2624
 Frc consts  --     0.0000                 0.0000                 0.0000
 IR Inten    --     0.2303                 0.1611                 1.1633
 Raman Activ --     0.0000                 0.0000                 0.0000
 Depolar     --     0.0000                 0.0000                 0.0000
 Atom AN      X      Y      Z        X      Y      Z        X      Y      Z
   1   6     0.19  -0.13   0.00     0.07   0.09   0.14    -0.05  -0.07  -0.31
   2   1    -0.13  -0.08   0.20    -0.01   0.01  -0.11     0.03   0.01   0.09
   3   1    -0.11   0.07   0.00    -0.08  -0.11   0.15     0.16   0.23  -0.30
   4   1     0.03   0.15  -0.20     0.01  -0.00  -0.11    -0.00   0.03   0.09
   5   6     0.29  -0.20   0.00     0.29   0.41  -0.33     0.02   0.02  -0.14
   6   1     0.06   0.18   0.29     0.08   0.11  -0.03     0.00   0.00  -0.26
   7   1    -0.15  -0.12  -0.29     0.08   0.11  -0.03     0.00   0.00  -0.26
   8   6    -0.18   0.12  -0.00    -0.26  -0.37   0.19    -0.10  -0.14   0.03
   9   1    -0.03  -0.19   0.21    -0.06  -0.05   0.30    -0.02  -0.02   0.08
  10   1     0.10  -0.07   0.00     0.09   0.13  -0.13     0.04   0.06  -0.07
  11   1     0.16   0.09  -0.21    -0.03  -0.08   0.30    -0.01  -0.03   0.08
  12   6    -0.37   0.26  -0.00    -0.03  -0.05  -0.09     0.01   0.01   0.69
  13   8     0.07  -0.05   0.00    -0.08  -0.11  -0.01     0.05   0.07  -0.10
                     16                     17                     18
                        a                      a                      a 
 Frequencies --  1230.0117              1318.8411              1370.0692
 Red. masses --     3.1269                 5.9799                 3.2151
 Frc consts  --     0.0000                 0.0000                 0.0000
 IR Inten    --     0.0519                 0.6348                 0.4004
 Raman Activ --     0.0000                 0.0000                 0.0000
 Depolar     --     0.0000                 0.0000                 0.0000
 Atom AN      X      Y      Z        X      Y      Z        X      Y      Z
   1   6    -0.04   0.03  -0.00    -0.01  -0.02   0.07    -0.16  -0.23   0.34
   2   1     0.03   0.02  -0.03    -0.01  -0.01  -0.00     0.34   0.08  -0.41
   3   1     0.04  -0.03   0.00    -0.01  -0.01   0.02     0.22   0.31  -0.27
   4   1    -0.01  -0.04   0.03    -0.00  -0.02  -0.00    -0.03   0.35  -0.41
   5   6     0.18  -0.13   0.00     0.05   0.07   0.58    -0.00  -0.00   0.00
   6   1     0.04   0.12  -0.52     0.01  -0.07  -0.49    -0.00  -0.02   0.02
   7   1    -0.10  -0.08   0.52    -0.07  -0.02  -0.49    -0.02  -0.01   0.02
   8   6    -0.29   0.20  -0.00    -0.07  -0.10  -0.11     0.01   0.01  -0.01
   9   1    -0.06  -0.22   0.23    -0.01   0.07   0.04     0.00  -0.01   0.01
  10   1     0.12  -0.08   0.00     0.09   0.13  -0.15    -0.01  -0.01   0.01
  11   1     0.19   0.13  -0.23     0.07   0.01   0.04    -0.01  -0.00   0.01
  12   6     0.10  -0.07   0.00    -0.00  -0.00  -0.27     0.00   0.01  -0.05
  13   8    -0.01   0.01  -0.00     0.02   0.02   0.04     0.01   0.01   0.00
                     19                     20                     21
                        a                      a                      a 
 Frequencies --  1411.0105              1440.6420              1455.5270
 Red. masses --     2.9724                 2.0602                 1.7238
 Frc consts  --     0.0000                 0.0000                 0.0000
 IR Inten    --     0.1446                 0.0816                 0.2154
 Raman Activ --     0.0000                 0.0000                 0.0000
 Depolar     --     0.0000                 0.0000                 0.0000
 Atom AN      X      Y      Z        X      Y      Z        X      Y      Z
   1   6     0.01   0.01  -0.01    -0.02  -0.02  -0.07     0.07   0.10   0.18
   2   1    -0.01  -0.00   0.01     0.17   0.06   0.08    -0.52  -0.18  -0.21
   3   1    -0.01  -0.01   0.01    -0.07  -0.10   0.08     0.19   0.26  -0.21
   4   1     0.00  -0.01   0.01    -0.00   0.18   0.08     0.00  -0.55  -0.21
   5   6     0.04   0.06   0.04     0.15   0.21  -0.08     0.05   0.07  -0.03
   6   1     0.00  -0.19  -0.04     0.02  -0.61   0.06     0.01  -0.21   0.04
   7   1    -0.18  -0.06  -0.04    -0.58  -0.18   0.06    -0.20  -0.06   0.04
   8   6     0.12   0.17  -0.35    -0.03  -0.04   0.11    -0.01  -0.01   0.04
   9   1     0.02  -0.19   0.45    -0.00   0.07  -0.12    -0.00   0.02  -0.05
  10   1    -0.25  -0.35   0.27     0.06   0.08  -0.05     0.02   0.03  -0.02
  11   1    -0.19  -0.05   0.45     0.06   0.02  -0.12     0.02   0.01  -0.05
  12   6    -0.01  -0.02  -0.00    -0.00  -0.01   0.03    -0.02  -0.02   0.01
  13   8     0.02   0.03   0.00     0.00   0.00  -0.00     0.03   0.05  -0.00
                     22                     23                     24
                        a                      a                      a 
 Frequencies --  1464.0874              1488.9612              1499.4666
 Red. masses --     1.5981                 1.5032                 1.5691
 Frc consts  --     0.0000                 0.0000                 0.0000
 IR Inten    --     0.0989                 0.0392                 0.0660
 Raman Activ --     0.0000                 0.0000                 0.0000
 Depolar     --     0.0000                 0.0000                 0.0000
 Atom AN      X      Y      Z        X      Y      Z        X      Y      Z
   1   6     0.19  -0.13   0.00    -0.00   0.00   0.00     0.00   0.00  -0.00
   2   1    -0.15  -0.08  -0.42     0.00  -0.00  -0.00    -0.00  -0.00  -0.00
   3   1    -0.60   0.42  -0.00    -0.00   0.00  -0.00     0.00   0.00  -0.00
   4   1     0.03   0.17   0.42     0.00  -0.00   0.00    -0.00  -0.00  -0.00
   5   6    -0.01   0.01  -0.00     0.03  -0.02  -0.00    -0.03  -0.04  -0.05
   6   1    -0.00  -0.00  -0.03     0.01   0.01  -0.03    -0.01   0.01   0.03
   7   1     0.00   0.00   0.03    -0.01  -0.01   0.03     0.01  -0.00   0.03
   8   6    -0.01   0.00   0.00     0.17  -0.12   0.00    -0.11  -0.16  -0.10
   9   1    -0.00  -0.00   0.00     0.01   0.15   0.44    -0.02   0.64   0.12
  10   1     0.00  -0.00  -0.00    -0.59   0.41  -0.00    -0.15  -0.21   0.16
  11   1     0.00   0.00  -0.00    -0.14  -0.07  -0.44     0.61   0.20   0.12
  12   6     0.03  -0.02  -0.00     0.00  -0.00   0.00    -0.01  -0.01   0.01
  13   8     0.00   0.00   0.00    -0.00   0.00   0.00     0.01   0.02   0.00
                     25                     26                     27
                        a                      a                      a 
 Frequencies --  1781.3644              2959.3256              2974.7897
 Red. masses --    13.3252                 1.9685                 1.4920
 Frc consts  --     0.0000                 0.0000                 0.0000
 IR Inten    --     2.0815                 0.1625                 0.1511
 Raman Activ --     0.0000                 0.0000                 0.0000
 Depolar     --     0.0000                 0.0000                 0.0000
 Atom AN      X      Y      Z        X      Y      Z        X      Y      Z
   1   6     0.02   0.03  -0.02     0.01  -0.01   0.00    -0.01  -0.01  -0.00
   2   1     0.04   0.01  -0.02    -0.01   0.03  -0.00    -0.01   0.04  -0.00
   3   1    -0.03  -0.04   0.03     0.00  -0.00  -0.00     0.00   0.00   0.01
   4   1    -0.00   0.04  -0.02    -0.03  -0.00   0.00     0.04  -0.00  -0.00
   5   6     0.02   0.03   0.02    -0.24   0.17  -0.00     0.12   0.17  -0.00
   6   1    -0.00   0.03   0.03     0.67   0.03  -0.00    -0.69   0.02   0.00
   7   1     0.03   0.01   0.03     0.20  -0.64   0.00     0.25  -0.64   0.00
   8   6    -0.00  -0.00   0.00     0.01  -0.01   0.00    -0.01  -0.01  -0.01
   9   1    -0.00  -0.01  -0.01    -0.05  -0.00   0.00     0.04  -0.00  -0.00
  10   1     0.01   0.02  -0.02     0.00  -0.00  -0.00     0.01   0.02   0.03
  11   1    -0.01  -0.01  -0.01    -0.01   0.05  -0.00    -0.01   0.04  -0.00
  12   6    -0.45  -0.64  -0.01    -0.01   0.00  -0.00     0.01   0.01   0.00
  13   8     0.35   0.49   0.00     0.00  -0.00   0.00    -0.00  -0.00   0.00
                     28                     29                     30
                        a                      a                      a 
 Frequencies --  3029.0698              3034.9529              3040.1404
 Red. masses --     1.9477                 1.4270                 1.7556
 Frc consts  --     0.0000                 0.0000                 0.0000
 IR Inten    --     0.1102                 0.0739                 0.2052
 Raman Activ --     0.0000                 0.0000                 0.0000
 Depolar     --     0.0000                 0.0000                 0.0000
 Atom AN      X      Y      Z        X      Y      Z        X      Y      Z
   1   6    -0.24   0.17   0.00     0.11   0.16  -0.02     0.00   0.00  -0.00
   2   1     0.19  -0.63   0.01     0.25  -0.65   0.01     0.01  -0.03  -0.00
   3   1    -0.03   0.02  -0.00     0.05   0.07   0.07     0.01   0.01   0.02
   4   1     0.69   0.03  -0.01    -0.68   0.02   0.01    -0.03   0.00  -0.00
   5   6    -0.01   0.01  -0.00     0.01   0.01   0.00     0.01   0.01   0.01
   6   1     0.03   0.00  -0.00    -0.04   0.00   0.00    -0.03   0.00  -0.00
   7   1     0.01  -0.02   0.00     0.01  -0.04   0.00     0.01  -0.03  -0.00
   8   6     0.01  -0.00   0.00    -0.01  -0.01  -0.01     0.09   0.13   0.21
   9   1    -0.02  -0.00  -0.00     0.01  -0.00  -0.00    -0.03   0.02   0.03
  10   1     0.00  -0.00  -0.00     0.01   0.02   0.03    -0.32  -0.45  -0.79
  11   1    -0.01   0.02   0.00    -0.01   0.01  -0.00     0.03  -0.02   0.03
  12   6    -0.01   0.00   0.00     0.01   0.01  -0.00     0.00   0.00  -0.00
  13   8     0.00  -0.00   0.00    -0.00  -0.00  -0.00    -0.00  -0.00  -0.00
                     31                     32                     33
                        a                      a                      a 
 Frequencies --  3048.0620              3053.9399              3057.8734
 Red. masses --     1.9537                 1.4527                 1.7862
 Frc consts  --     0.0000                 0.0000                 0.0000
 IR Inten    --     0.1909                 0.1509                 0.1254
 Raman Activ --     0.0000                 0.0000                 0.0000
 Depolar     --     0.0000                 0.0000                 0.0000
 Atom AN      X      Y      Z        X      Y      Z        X      Y      Z
   1   6     0.01  -0.00  -0.00    -0.00  -0.00  -0.01     0.10   0.14   0.20
   2   1    -0.00   0.02  -0.00     0.00  -0.01  -0.00     0.04  -0.04   0.03
   3   1     0.00  -0.00   0.00     0.02   0.02   0.04    -0.33  -0.47  -0.76
   4   1    -0.02  -0.00   0.00    -0.01  -0.00  -0.00    -0.05   0.02   0.03
   5   6     0.02  -0.02  -0.00     0.01   0.01  -0.00     0.00   0.00  -0.00
   6   1    -0.05  -0.00  -0.00    -0.04   0.00  -0.00    -0.02   0.00  -0.00
   7   1    -0.02   0.05   0.00     0.01  -0.04  -0.00     0.01  -0.01  -0.00
   8   6     0.24  -0.17   0.00     0.11   0.16  -0.01     0.01   0.01   0.00
   9   1    -0.68  -0.03  -0.00    -0.68   0.02  -0.00    -0.03   0.00   0.00
  10   1     0.03  -0.02   0.00     0.03   0.05   0.05    -0.00  -0.01  -0.01
  11   1    -0.20   0.64   0.00     0.25  -0.65   0.00     0.01  -0.03   0.00
  12   6     0.00  -0.00  -0.00     0.00   0.00  -0.00     0.00   0.01   0.01
  13   8    -0.00   0.00   0.00    -0.00  -0.00   0.00    -0.00  -0.00  -0.00
