 Entering Gaussian System
 *********************************************
 Gaussian 98:
 frequency output generated by the xtb code
 *********************************************
                         Standard orientation:
 --------------------------------------------------------------------
  Center     Atomic     Atomic              Coordinates (Angstroms)
  Number     Number      Type              X           Y           Z
 --------------------------------------------------------------------
    1          6             0        2.089575    0.991256   -0.519848
    2          1             0        2.439457   -0.038273   -0.493809
    3          1             0        2.465201    1.522885    0.350208
    4          1             0        1.002267    0.978313   -0.494268
    5          6             0        2.096244    0.995789   -3.061776
    6          1             0        1.003754    0.971961   -3.050358
    7          1             0        2.441982   -0.040809   -3.048894
    8          6             0        2.599404    1.708436   -4.309682
    9          1             0        3.686177    1.724795   -4.319518
   10          1             0        2.246163    1.205373   -5.206387
   11          1             0        2.248514    2.737117   -4.321103
   12          6             0        2.566236    1.664980   -1.785560
   13          8             0        3.259416    2.648511   -1.775704
 --------------------------------------------------------------------
     1 basis functions        1 primitive gaussians
     1 alpha electrons        1 beta electrons
 
 Harmonic frequencies (cm**-1), IR intensities (KM/Mole),
 Raman scattering activities (A**4/amu), Raman depolarization ratios,
 reduced masses (AMU), force constants (mDyne/A) and normal coordinates:
                      1                      2                      3
                        a                      a                      a 
 Frequencies --   -51.0632                80.7551               177.7460
 Red. masses --    99.0000                99.0000                99.0000
 Frc consts  --    99.0000                99.0000                99.0000
 IR Inten    --    99.0000                99.0000                99.0000
 Raman Activ --     0.0000                 0.0000                 0.0000
 Depolar     --     0.0000                 0.0000                 0.0000
 Atom AN      X      Y      Z        X      Y      Z        X      Y      Z
   1   6     0.19  -0.13   0.00     0.22  -0.15   0.00     0.10  -0.07   0.00
   2   1     0.43   0.09   0.11    -0.28  -0.16  -0.21     0.02  -0.03  -0.05
   3   1    -0.21   0.15  -0.00     0.39  -0.28   0.00     0.08  -0.06   0.00
   4   1     0.06  -0.44  -0.11     0.06   0.32   0.21     0.03  -0.01   0.05
   5   6    -0.29   0.20  -0.00    -0.14   0.10  -0.00    -0.22   0.16  -0.00
   6   1    -0.09   0.25  -0.03    -0.05   0.16  -0.02    -0.06   0.11  -0.02
   7   1    -0.27  -0.00   0.03    -0.17  -0.01   0.02    -0.13   0.02   0.02
   8   6     0.21  -0.15   0.00     0.23  -0.16   0.00     0.08  -0.06  -0.00
   9   1     0.06  -0.24   0.01     0.07  -0.23  -0.01     0.02   0.38   0.32
  10   1    -0.02   0.02  -0.00    -0.03   0.02  -0.00     0.47  -0.33   0.00
  11   1     0.25   0.02  -0.01     0.24   0.01   0.01    -0.35  -0.15  -0.32
  12   6    -0.07   0.05  -0.00    -0.04   0.03  -0.00    -0.06   0.04  -0.00
  13   8    -0.08   0.06  -0.00    -0.29   0.20  -0.00     0.07  -0.05   0.00
                      4                      5                      6
                        a                      a                      a 
 Frequencies --   476.8634               233.2726               772.3969
 Red. masses --    99.0000                99.0000                99.0000
 Frc consts  --    99.0000                99.0000                99.0000
 IR Inten    --    99.0000                99.0000                99.0000
 Raman Activ --     0.0000                 0.0000                 0.0000
 Depolar     --     0.0000                 0.0000                 0.0000
 Atom AN      X      Y      Z        X      Y      Z        X      Y      Z
   1   6     0.05  -0.04   0.00     0.11   0.15   0.18     0.11  -0.08  -0.00
   2   1     0.15   0.03  -0.22     0.03   0.05   0.12    -0.12  -0.06   0.22
   3   1     0.15  -0.11  -0.00     0.08   0.12  -0.02    -0.10   0.07  -0.00
   4   1     0.02  -0.15   0.22     0.03   0.05   0.12     0.02   0.14  -0.22
   5   6    -0.03   0.02   0.00    -0.13  -0.18  -0.06    -0.31   0.22   0.00
   6   1     0.00  -0.33  -0.13    -0.04  -0.05  -0.07    -0.06  -0.44   0.05
   7   1     0.31   0.11   0.13    -0.03  -0.05  -0.07     0.39   0.21  -0.05
   8   6     0.05  -0.04   0.00     0.22   0.31   0.36    -0.05   0.03   0.00
   9   1     0.02  -0.09   0.00     0.06   0.10   0.21    -0.00  -0.24   0.23
  10   1    -0.02   0.01   0.00     0.15   0.21   0.00     0.10  -0.07   0.00
  11   1     0.09   0.01  -0.00     0.07   0.09   0.21     0.22   0.08  -0.23
  12   6    -0.56   0.39  -0.00    -0.13  -0.19  -0.07     0.18  -0.13   0.00
  13   8     0.24  -0.17  -0.00    -0.15  -0.21  -0.48    -0.05   0.04  -0.00
                      7                      8                      9
                        a                      a                      a 
 Frequencies --   395.9281               580.4890              1488.9612
 Red. masses --    99.0000                99.0000                99.0000
 Frc consts  --    99.0000                99.0000                99.0000
 IR Inten    --    99.0000                99.0000                99.0000
 Raman Activ --     0.0000                 0.0000                 0.0000
 Depolar     --     0.0000                 0.0000                 0.0000
 Atom AN      X      Y      Z        X      Y      Z        X      Y      Z
   1   6    -0.14  -0.20  -0.37    -0.18  -0.25   0.39    -0.00   0.00   0.00
   2   1    -0.05  -0.06  -0.25    -0.06  -0.08   0.03     0.00  -0.00  -0.00
   3   1    -0.15  -0.22   0.04    -0.11  -0.16   0.19    -0.00   0.00  -0.00
   4   1    -0.04  -0.07  -0.25    -0.05  -0.08   0.03     0.00  -0.00   0.00
   5   6    -0.06  -0.08   0.29     0.20   0.28   0.11     0.03  -0.02  -0.00
   6   1    -0.02  -0.02   0.11     0.06   0.07  -0.01     0.01   0.01  -0.03
   7   1    -0.01  -0.02   0.11     0.05   0.08  -0.01    -0.01  -0.01   0.03
   8   6    -0.04  -0.06   0.42     0.06   0.09  -0.19     0.17  -0.12   0.00
   9   1    -0.01  -0.01   0.16     0.01   0.02  -0.17     0.01   0.15   0.44
  10   1     0.02   0.02   0.09    -0.07  -0.10   0.05    -0.59   0.41  -0.00
  11   1    -0.01  -0.01   0.16     0.01   0.02  -0.17    -0.14  -0.07  -0.44
  12   6     0.14   0.19  -0.01    -0.01  -0.02   0.32     0.00  -0.00   0.00
  13   8     0.16   0.22  -0.33    -0.02  -0.02  -0.53    -0.00   0.00   0.00
                     10                     11                     12
                        a                      a                      a 
 Frequencies --  1499.4666               968.6630               811.9342
 Red. masses --    99.0000                99.0000                99.0000
 Frc consts  --    99.0000                99.0000                99.0000
 IR Inten    --    99.0000                99.0000                99.0000
 Raman Activ --     0.0000                 0.0000                 0.0000
 Depolar     --     0.0000                 0.0000                 0.0000
 Atom AN      X      Y      Z        X      Y      Z        X      Y      Z
   1   6     0.00   0.00  -0.00    -0.28  -0.39   0.08    -0.06  -0.08   0.35
   2   1    -0.00  -0.00  -0.00    -0.03  -0.08   0.39    -0.03  -0.03  -0.03
   3   1     0.00   0.00  -0.00     0.15   0.21  -0.26    -0.12  -0.17   0.24
   4   1    -0.00  -0.00  -0.00    -0.06  -0.05   0.39    -0.02  -0.04  -0.03
   5   6    -0.03  -0.04  -0.05     0.07   0.10  -0.01    -0.26  -0.37  -0.32
   6   1    -0.01   0.01   0.03     0.02   0.02   0.16    -0.07  -0.09  -0.08
   7   1     0.01  -0.00   0.03     0.01   0.03   0.16    -0.06  -0.10  -0.08
   8   6    -0.11  -0.16  -0.10    -0.06  -0.08   0.02    -0.02  -0.03  -0.22
   9   1    -0.02   0.64   0.12    -0.01  -0.00   0.12    -0.00   0.01   0.13
  10   1    -0.15  -0.21   0.16     0.06   0.09  -0.08     0.15   0.22  -0.24
  11   1     0.61   0.20   0.12    -0.00  -0.01   0.12     0.01   0.00   0.13
  12   6    -0.01  -0.01   0.01     0.07   0.10  -0.33     0.14   0.20   0.12
  13   8     0.01   0.02   0.00     0.13   0.19  -0.04     0.20   0.29   0.04
                     13                     14                     15
                        a                      a                      a 
 Frequencies --   936.7386              1084.5552              1230.0117
 Red. masses --    99.0000                99.0000                99.0000
 Frc consts  --    99.0000                99.0000                99.0000
 IR Inten    --    99.0000                99.0000                99.0000
 Raman Activ --     0.0000                 0.0000                 0.0000
 Depolar     --     0.0000                 0.0000                 0.0000
 Atom AN      X      Y      Z        X      Y      Z        X      Y      Z
   1   6    -0.26   0.18  -0.00     0.19  -0.13   0.00    -0.04   0.03  -0.00
   2   1     0.21   0.13  -0.35    -0.13  -0.08   0.20     0.03   0.02  -0.03
   3   1     0.14  -0.10  -0.00    -0.11   0.07   0.00     0.04  -0.03   0.00
   4   1    -0.05  -0.24   0.35     0.03   0.15  -0.20    -0.01  -0.04   0.03
   5   6     0.06  -0.04   0.00     0.29  -0.20   0.00     0.18  -0.13   0.00
   6   1     0.02  -0.01   0.34     0.06   0.18   0.29     0.04   0.12  -0.52
   7   1     0.02  -0.01  -0.34    -0.15  -0.12  -0.29    -0.10  -0.08   0.52
   8   6    -0.11   0.08  -0.00    -0.18   0.12  -0.00    -0.29   0.20  -0.00
   9   1    -0.02  -0.19   0.21    -0.03  -0.19   0.21    -0.06  -0.22   0.23
  10   1     0.10  -0.07   0.00     0.10  -0.07   0.00     0.12  -0.08   0.00
  11   1     0.17   0.08  -0.21     0.16   0.09  -0.21     0.19   0.13  -0.23
  12   6     0.20  -0.14  -0.00    -0.37   0.26  -0.00     0.10  -0.07   0.00
  13   8    -0.04   0.03  -0.00     0.07  -0.05   0.00    -0.01   0.01  -0.00
                     16                     17                     18
                        a                      a                      a 
 Frequencies --  1370.0692              1440.6420              1039.8980
 Red. masses --    99.0000                99.0000                99.0000
 Frc consts  --    99.0000                99.0000                99.0000
 IR Inten    --    99.0000                99.0000                99.0000
 Raman Activ --     0.0000                 0.0000                 0.0000
 Depolar     --     0.0000                 0.0000                 0.0000
 Atom AN      X      Y      Z        X      Y      Z        X      Y      Z
   1   6    -0.16  -0.23   0.34    -0.02  -0.02  -0.07    -0.06  -0.08   0.15
   2   1     0.34   0.08  -0.41     0.17   0.06   0.08    -0.02  -0.02   0.06
   3   1     0.22   0.31  -0.27    -0.07  -0.10   0.08    -0.01  -0.02   0.04
   4   1    -0.03   0.35  -0.41    -0.00   0.18   0.08    -0.01  -0.02   0.06
   5   6    -0.00  -0.00   0.00     0.15   0.21  -0.08    -0.03  -0.04  -0.35
   6   1    -0.00  -0.02   0.02     0.02  -0.61   0.06    -0.01  -0.00  -0.33
   7   1    -0.02  -0.01   0.02    -0.58  -0.18   0.06    -0.00  -0.01  -0.33
   8   6     0.01   0.01  -0.01    -0.03  -0.04   0.11    -0.00   0.00   0.45
   9   1     0.00  -0.01   0.01    -0.00   0.07  -0.12    -0.01  -0.06  -0.15
  10   1    -0.01  -0.01   0.01     0.06   0.08  -0.05    -0.22  -0.31   0.37
  11   1    -0.01  -0.00   0.01     0.06   0.02  -0.12    -0.05  -0.03  -0.15
  12   6     0.00   0.01  -0.05    -0.00  -0.01   0.03     0.05   0.07  -0.18
  13   8     0.01   0.01   0.00     0.00   0.00  -0.00     0.11   0.16   0.05
                     19                     20                     21
                        a                      a                      a 
 Frequencies --  1111.1386              1155.9856              1464.0874
 Red. masses --    99.0000                99.0000                99.0000
 Frc consts  --    99.0000                99.0000                99.0000
 IR Inten    --    99.0000                99.0000                99.0000
 Raman Activ --     0.0000                 0.0000                 0.0000
 Depolar     --     0.0000                 0.0000                 0.0000
 Atom AN      X      Y      Z        X      Y      Z        X      Y      Z
   1   6     0.07   0.09   0.14    -0.05  -0.07  -0.31     0.19  -0.13   0.00
   2   1    -0.01   0.01  -0.11     0.03   0.01   0.09    -0.15  -0.08  -0.42
   3   1    -0.08  -0.11   0.15     0.16   0.23  -0.30    -0.60   0.42  -0.00
   4   1     0.01  -0.00  -0.11    -0.00   0.03   0.09     0.03   0.17   0.42
   5   6     0.29   0.41  -0.33     0.02   0.02  -0.14    -0.01   0.01  -0.00
   6   1     0.08   0.11  -0.03     0.00   0.00  -0.26    -0.00  -0.00  -0.03
   7   1     0.08   0.11  -0.03     0.00   0.00  -0.26     0.00   0.00   0.03
   8   6    -0.26  -0.37   0.19    -0.10  -0.14   0.03    -0.01   0.00   0.00
   9   1    -0.06  -0.05   0.30    -0.02  -0.02   0.08    -0.00  -0.00   0.00
  10   1     0.09   0.13  -0.13     0.04   0.06  -0.07     0.00  -0.00  -0.00
  11   1    -0.03  -0.08   0.30    -0.01  -0.03   0.08     0.00   0.00  -0.00
  12   6    -0.03  -0.05  -0.09     0.01   0.01   0.69     0.03  -0.02  -0.00
  13   8    -0.08  -0.11  -0.01     0.05   0.07  -0.10     0.00   0.00   0.00
                     22                     23                     24
                        a                      a                      a 
 Frequencies --  1455.5270              1318.8411              1411.0105
 Red. masses --    99.0000                99.0000                99.0000
 Frc consts  --    99.0000                99.0000                99.0000
 IR Inten    --    99.0000                99.0000                99.0000
 Raman Activ --     0.0000                 0.0000                 0.0000
 Depolar     --     0.0000                 0.0000                 0.0000
 Atom AN      X      Y      Z        X      Y      Z        X      Y      Z
   1   6     0.07   0.10   0.18    -0.01  -0.02   0.07     0.01   0.01  -0.01
   2   1    -0.52  -0.18  -0.21    -0.01  -0.01  -0.00    -0.01  -0.00   0.01
   3   1     0.19   0.26  -0.21    -0.01  -0.01   0.02    -0.01  -0.01   0.01
   4   1     0.00  -0.55  -0.21    -0.00  -0.02  -0.00     0.00  -0.01   0.01
   5   6     0.05   0.07  -0.03     0.05   0.07   0.58     0.04   0.06   0.04
   6   1     0.01  -0.21   0.04     0.01  -0.07  -0.49     0.00  -0.19  -0.04
   7   1    -0.20  -0.06   0.04    -0.07  -0.02  -0.49    -0.18  -0.06  -0.04
   8   6    -0.01  -0.01   0.04    -0.07  -0.10  -0.11     0.12   0.17  -0.35
   9   1    -0.00   0.02  -0.05    -0.01   0.07   0.04     0.02  -0.19   0.45
  10   1     0.02   0.03  -0.02     0.09   0.13  -0.15    -0.25  -0.35   0.27
  11   1     0.02   0.01  -0.05     0.07   0.01   0.04    -0.19  -0.05   0.45
  12   6    -0.02  -0.02   0.01    -0.00  -0.00  -0.27    -0.01  -0.02  -0.00
  13   8     0.03   0.05  -0.00     0.02   0.02   0.04     0.02   0.03   0.00
                     25                     26                     27
                        a                      a                      a 
 Frequencies --  1781.3644              2959.3256              3048.0620
 Red. masses --    99.0000                99.0000                99.0000
 Frc consts  --    99.0000                99.0000                99.0000
 IR Inten    --    99.0000                99.0000                99.0000
 Raman Activ --     0.0000                 0.0000                 0.0000
 Depolar     --     0.0000                 0.0000                 0.0000
 Atom AN      X      Y      Z        X      Y      Z        X      Y      Z
   1   6     0.02   0.03  -0.02     0.01  -0.01   0.00     0.01  -0.00  -0.00
   2   1     0.04   0.01  -0.02    -0.01   0.03  -0.00    -0.00   0.02  -0.00
   3   1    -0.03  -0.04   0.03     0.00  -0.00  -0.00     0.00  -0.00   0.00
   4   1    -0.00   0.04  -0.02    -0.03  -0.00   0.00    -0.02  -0.00   0.00
   5   6     0.02   0.03   0.02    -0.24   0.17  -0.00     0.02  -0.02  -0.00
   6   1    -0.00   0.03   0.03     0.67   0.03  -0.00    -0.05  -0.00  -0.00
   7   1     0.03   0.01   0.03     0.20  -0.64   0.00    -0.02   0.05   0.00
   8   6    -0.00  -0.00   0.00     0.01  -0.01   0.00     0.24  -0.17   0.00
   9   1    -0.00  -0.01  -0.01    -0.05  -0.00   0.00    -0.68  -0.03  -0.00
  10   1     0.01   0.02  -0.02     0.00  -0.00  -0.00     0.03  -0.02   0.00
  11   1    -0.01  -0.01  -0.01    -0.01   0.05  -0.00    -0.20   0.64   0.00
  12   6    -0.45  -0.64  -0.01    -0.01   0.00  -0.00     0.00  -0.00  -0.00
  13   8     0.35   0.49   0.00     0.00  -0.00   0.00    -0.00   0.00   0.00
                     28                     29                     30
                        a                      a                      a 
 Frequencies --  3029.0698              3034.9529              3057.8734
 Red. masses --    99.0000                99.0000                99.0000
 Frc consts  --    99.0000                99.0000                99.0000
 IR Inten    --    99.0000                99.0000                99.0000
 Raman Activ --     0.0000                 0.0000                 0.0000
 Depolar     --     0.0000                 0.0000                 0.0000
 Atom AN      X      Y      Z        X      Y      Z        X      Y      Z
   1   6    -0.24   0.17   0.00     0.11   0.16  -0.02     0.10   0.14   0.20
   2   1     0.19  -0.63   0.01     0.25  -0.65   0.01     0.04  -0.04   0.03
   3   1    -0.03   0.02  -0.00     0.05   0.07   0.07    -0.33  -0.47  -0.76
   4   1     0.69   0.03  -0.01    -0.68   0.02   0.01    -0.05   0.02   0.03
   5   6    -0.01   0.01  -0.00     0.01   0.01   0.00     0.00   0.00  -0.00
   6   1     0.03   0.00  -0.00    -0.04   0.00   0.00    -0.02   0.00  -0.00
   7   1     0.01  -0.02   0.00     0.01  -0.04   0.00     0.01  -0.01  -0.00
   8   6     0.01  -0.00   0.00    -0.01  -0.01  -0.01     0.01   0.01   0.00
   9   1    -0.02  -0.00  -0.00     0.01  -0.00  -0.00    -0.03   0.00   0.00
  10   1     0.00  -0.00  -0.00     0.01   0.02   0.03    -0.00  -0.01  -0.01
  11   1    -0.01   0.02   0.00    -0.01   0.01  -0.00     0.01  -0.03   0.00
  12   6    -0.01   0.00   0.00     0.01   0.01  -0.00     0.00   0.01   0.01
  13   8     0.00  -0.00   0.00    -0.00  -0.00  -0.00    -0.00  -0.00  -0.00
                     31                     32                     33
                        a                      a                      a 
 Frequencies --  2974.7897              3040.1404              3053.9399
 Red. masses --    99.0000                99.0000                99.0000
 Frc consts  --    99.0000                99.0000                99.0000
 IR Inten    --    99.0000                99.0000                99.0000
 Raman Activ --     0.0000                 0.0000                 0.0000
 Depolar     --     0.0000                 0.0000                 0.0000
 Atom AN      X      Y      Z        X      Y      Z        X      Y      Z
   1   6    -0.01  -0.01  -0.00     0.00   0.00  -0.00    -0.00  -0.00  -0.01
   2   1    -0.01   0.04  -0.00     0.01  -0.03  -0.00     0.00  -0.01  -0.00
   3   1     0.00   0.00   0.01     0.01   0.01   0.02     0.02   0.02   0.04
   4   1     0.04  -0.00  -0.00    -0.03   0.00  -0.00    -0.01  -0.00  -0.00
   5   6     0.12   0.17  -0.00     0.01   0.01   0.01     0.01   0.01  -0.00
   6   1    -0.69   0.02   0.00    -0.03   0.00  -0.00    -0.04   0.00  -0.00
   7   1     0.25  -0.64   0.00     0.01  -0.03  -0.00     0.01  -0.04  -0.00
   8   6    -0.01  -0.01  -0.01     0.09   0.13   0.21     0.11   0.16  -0.01
   9   1     0.04  -0.00  -0.00    -0.03   0.02   0.03    -0.68   0.02  -0.00
  10   1     0.01   0.02   0.03    -0.32  -0.45  -0.79     0.03   0.05   0.05
  11   1    -0.01   0.04  -0.00     0.03  -0.02   0.03     0.25  -0.65   0.00
  12   6     0.01   0.01   0.00     0.00   0.00  -0.00     0.00   0.00  -0.00
  13   8    -0.00  -0.00   0.00    -0.00  -0.00  -0.00    -0.00  -0.00   0.00
