 
        ______________________________________
       |                                      |
       |           ==================         |
       |                 x T B                |
       |           ==================         |
       |               S. Grimme              |
       |        Universitaet Bonn, MCTC       |
       |         2015-18, Version 5.8.1       |
       |      Sun May  6 11:39:08 CEST 2018   |
       |______________________________________|
 
        This code comes without any warranty
        for non-commercial, academia use only.
        Preliminary GFN2 test version.
        Test license to: Dow Chemical Company
        Cite GFN-xTB work as:
        S. Grimme, C. Bannwarth, P. Shushkov
        JCTC, 13 (2017) 1989-2009
        for GFN2:
        C. Bannwarth, S. Ehlert, S. Grimme
        to be published.
        sTDA-xTB:
        S. Grimme  &  C. Bannwarth, JCP 145 (2016) 054103
        in the mass-spec context additionally:
        V. Asgeirsson, C.Bauer, S. Grimme, Chem. Sci. 8 (2017) 4879
 
        with help from
        P. Shushkov, G. Brandenburg, S. Dohm, J. Pisarek,
        F. März, M. Checinski, S. Ehrlich, S. Spicher, 
        P. Pracht, E. Caldeweyher, S. Ehlert, and C. Bannwarth.
 
        usage        :
        xtb <coord_file> [options]
        where <coord_file> is a valid file of TM)
        (*coord, Bohr) or xmol (*xyz, Angstroem)
        format.

        options:
        -chrg <int>   : molecular charge
        -uhf  <int>   : # of unpaired electrons(=2*S)
        -nox          : skip second, extended part in sTDA-xTB
        -pop          : do population analysis
                      : (default for -nox)
        -mowr <real>  : cut MO write above (def.3 Eh)
        -molden       : write formatted molden file
        -parx <file>  : read parameters for sTDA-xTB
                        calc (def:~/.param_stda2.xtb)
        -parv <file>  : read parameters for vTB part in
                        sTDA-xTB (def: ~/.param_stda1.xtb)
        -xtemp <real> : el. temp for xTB (def. 0 K)
        -etemp <real> : el. temp for GFN (def. 300 K)
        -fod          : calculate the FOD and write
                        molden.input file with
                        appropriate occupations
                        for plotting. Def. T=12500 K
 
        -gfn1         : use GFN-xTB
        -gfn2         : use GFN2-xTB
        -gfn2d3       : GFN2-xTB with D3 instead of D4
        -grad         : GFNn-xTB gradient
        -acc <real>   : GFNn-xTB accuracy (def. 1.0)
        -opt [level]  : optimize at GFNn-xTB
                      : level=crude,vloose,loose,
                      :       tight,vtight
        -hess         : compute Hessian at GFNn-xTB
        -ohess        : optimize and compute Hessian
        -omd          : optimize and do MD
        -siman        : conformational search
        -screen       : opt. loop over ensemble
        -gmd          : annealed MD for GMD procedure
        -modef        : vib mode following
        -gbsa [string1] [string2]
                        use GBSA implicit solvent
                        for solvent [string1] and
                        solvation state [string2]=
                        reference, bar1M (default=1M)
        additional GFN/opt/MD/siman options read from
        $XTBHOME/.xtbrc or $set in coordinate file
 
       spin and charge state information can be on:
       <.CHRG> (charge) and <.UHF> (=nalpha-nbeta)
       -uhf and -chrg override the file info.
       useful machine settings:
       setenv MKL_NUM_THREADS <NCORE_ON_YOUR_MACHINE>
       setenv OMP_STACKSIZE 500m
       limit stacksize unlimited
 
       total energies in Eh, gaps/HL energies in eV
       please read REVISION and HOWTO files carefully
          72  days left until this code expires
 =============================
  # OMP threads =           2
 =============================
 
 xtbhome directory:/home/ua25450/dftb/
 
 argument            1 :-ohess
 
 name of molecule           :
 comment line               :
 number of atoms            :     6
 number of electrons        :    16
 charge                     :  0
 spin                       : 0.0
 first test random number   :  0.4606
 
 
 -----------------------------------------
  G F N (Geometry, Frequency, Non-covalent)
        parametrization, gfnver=           3
     D4 dispersion model
 /home/ua25450/dftb/.param_gfn2.xtb
 -----------------------------------------
      method parameters     
 k(s)        :  1.8500
 k(p)        :  2.2300
 k(d)        :  2.2300
 k(f)        :  2.0000
 kEN (H0ij)  : -2.0000
 D3 a1       :  0.5200
 D3 a2       :  5.0000
 D3 s8       :  2.7000
 D3atm       :  5.0000
 alphaj      :  2.0000
 
     -------------------------
     ! NO SOLVENT MODEL USED !
     -------------------------
 
 doing EN charges ...
 sum q :  0.1110223D-15
 point charge moment (au)
     X       Y       Z   
  -0.1350  -0.1909   0.3300  total (Debye):    1.028
 
            Z     q(EN)     CN     RAES       Cart. coordinates
     1  C   4.0   -0.14    3.97    3.57    -1.48154    -1.50724     1.03673
     2  H   1.0    0.04    1.00    1.43    -0.79628    -3.44844     1.03915
     3  H   1.0    0.04    1.00    1.43    -0.79559    -0.53718     2.71798
     4  H   1.0    0.04    1.00    1.43    -3.54015    -1.50818     1.03915
     5  C   4.0    0.17    2.06    3.00    -0.57696    -0.22800    -1.18058
     6  N   5.0   -0.16    1.05    1.90     0.14409     0.79169    -2.94199
 
  Z AO/shell   Hii/eV     exponent
  1     Wed Apr 25 08:07:45 CEST 2018   EN: 2.200 GM2: 0.406  GM3: 0.0800  RAES: 1.40
     1s    -10.707211    1.230000
  6     Wed Apr 25 08:07:45 CEST 2018   EN: 2.550 GM2: 0.538  GM3: 0.1500  RAES: 3.00
     2s    -13.970922    2.096432
     2p    -10.063292    1.800000
  7     Wed Apr 25 08:07:45 CEST 2018   EN: 3.040 GM2: 0.461  GM3:-0.0640  RAES: 1.90
     2s    -16.686243    2.339881
     2p    -12.523956    2.014332
 
Molecule has the following symmetry elements: (C3) 3*(sigma) 
It seems to be the C3v point group
c3v symmetry found (for desy threshold:  0.10E+00) used in thermo
 no old-style atom pair restraing (fixing) potential
 
             =======================================
             |                                     |
             |        S C C  calculation           |
             |                                     |
             =======================================
 #proc     :            2
 Ncao      :           15
 Nao       :           15
 Nel       :           16
 T(el)     :   300.0
 intcut    :    25.0
 scfconv   :  0.100E-05
   qconv   :  0.100E-03
 intneglect:  0.100E-07
 broydamp  :      0.400
 Nshell    :            9
  q data taken from xtbrestart
  CAMM data taken from xtbrestart
 iter      E             dE          RMSdq      gap      omega  full diag
   1     -8.8678489 -0.886785E+01  0.512E-07    6.11       0.0  T
   2     -8.8678489 -0.355271E-14  0.308E-07    6.11  100000.0  T
   3     -8.8678489  0.532907E-14  0.223E-07    6.11  100000.0  T
speedup  0.99
cpu  time for SCC    0.00 s
wall time for SCC    0.00 s

          eigenvalues
 #    :           1          2          3          4          5          6          7          8
 occ. :        2.000      2.000      2.000      2.000      2.000      2.000      2.000      2.000
 eps  :       -17.689    -17.246    -14.790    -14.327    -14.327    -12.656    -12.656    -11.612
 #    :           9         10         11         12         13         14         15
 occ. :        0.000      0.000      0.000      0.000      0.000      0.000      0.000
 eps  :        -5.502     -5.501      3.295      4.332      5.636      5.638     31.262
 

   #   Z            q   n(s)   n(p)   n(d)      C6AA      α(0)    relVol
   1   6 C     -0.106  1.022  3.084  0.000    22.787     6.838     0.553
   2   1 H      0.076  0.924  0.000  0.000     2.005     2.214     0.438
   3   1 H      0.076  0.924  0.000  0.000     2.005     2.214     0.438
   4   1 H      0.076  0.924  0.000  0.000     2.005     2.214     0.438
   5   6 C      0.118  1.162  2.719  0.000    28.212     8.577     0.694
   6   7 N     -0.241  1.635  3.605  0.000    26.251     7.401     0.982

 Mol. C6AA /au*bohr^6 :        377.350775
 Mol. C8AA /au*bohr^6 :       8635.258130
 Mol. a(0) /au        :         29.458613

 
 Wiberg/Mayer (AO) data. WBOs > 0.1 written file <wbo>
 largest (>0.05) Wiberg bond orders for each atom
           total WBO             WBO to atom ...
     1  C   3.995    C    5 1.070    H    4 0.954    H    2 0.954    H    3 0.954    N    6 0.065
     2  H   0.994    C    1 0.954
     3  H   0.994    C    1 0.954
     4  H   0.994    C    1 0.954
     5  C   3.947    N    6 2.850    C    1 1.070
     6  N   3.006    C    5 2.850    C    1 0.065
 
molecular dipole:
                 x           y           z       tot (Debye)
 q only:       -0.336      -0.476       0.823
   full:        1.515      -0.715       1.237       3.851
molecular quadrupole (traceless):
                xx          xy          yy          xz          yz          zz
 q only:        1.147       0.598       0.941      -0.243       0.383      -2.088
  q+dip:        1.812       0.838       1.459      -0.257       0.727      -3.271
   full:        2.321       0.477       1.712       0.367       1.610      -4.033
 SCC converged in            3  cycles
 
SCC energy    :      -8.8678489
rep           :       0.1793510
ES            :       0.0098607
AES           :       0.0014913
AXC           :       0.0184462
disp          :      -0.0017413
XB            :       0.0000000
fix           :       0.0000000
total E       :      -8.6884978
atomizationE  :       1.7316169     1086.61
(atE without considerung molecular charge,
 total energy contains solvation terms)
H-L gap (eV)  :          6.1101
 
             =======================================
             |                                     |
             |    Approximate Normal Coordinate    |
             |   Rational Function Optimization    |
             |                                     |
             =======================================
Ref. for RF algo: F.Eckert, P.Pulay, H.-J.Werner
                  J.Comput.Chem. 18 (1997) 1473.
ANC idea implemented by S. Grimme in the 2000ers (unpublished)
restraining potential by S. Ehrlich.
dumping coords to <xtbopt.coord> and <xtbopt.log
 optlevel               1
 Maxcycle             200
 Maxmicro              20
 Econv         1.000000000000000E-006
 Gconv         8.000000000000000E-004
 Maxdispl       1.00000000000000     
 Hlow          1.000000000000000E-002
 S6             20.0000000000000     
 Nvar               12

generating ANC from read Hessian ...
 Shifting diagonal of input Hessian by   0.000000000000000E+000
 Lowest  eigenvalues of input Hessian
   -0.000000   -0.000000   -0.000000    0.000000    0.000000    0.000000
    0.026487    0.026493    0.096424    0.096431    0.103808    0.157179
    0.157196    0.310985    0.663095    0.744871    0.744986    2.838995
 Highest eigenvalues
    0.157196    0.310985    0.663095    0.744871    0.744986    2.838995
 
cpu  time for ANC gen    0.01 s
wall time for ANC gen    0.01 s
................................................................................
.............................. CYCLE    1 ......................................
................................................................................
  q data taken from xtbrestart
  CAMM data taken from xtbrestart
   1     -8.8678489 -0.886785E+01  0.518E-08    6.11       0.0  T
   2     -8.8678489  0.000000E+00  0.297E-08    6.11  100000.0  T
   3     -8.8678489  0.355271E-14  0.209E-08    6.11  100000.0  T
speedup  1.00
cpu  time for SCC    0.00 s
wall time for SCC    0.00 s
speedup  1.00
cpu  time for grad    0.00 s
wall time for grad    0.00 s
 E :     -8.68849784  G :  0.000132    pred/act E change:  0.000D+00 -0.135D-10
Maxdispl :   0.0024   ||displ|| :   0.0025   Lambda : -0.234D-06
Largest |displ|/coords:  0.0024 (   2)  0.0006 (   6)  0.0003 (   4)
ancopt converged in          1 cycles
total energy gain (kcal):      0.0000
================
 final structure:
================
     6
         -8.68849784
C          -0.78399679405228   -0.79759456841842    0.54861482919471
H          -0.42137170120548   -1.82483813448548    0.54989632599227
H          -0.42100811440256   -0.28426440130636    1.43829248922920
H          -1.87336635975371   -0.79809600954697    0.54989623312384
C          -0.30531201879704   -0.12064988259833   -0.62473549603063
N           0.07624883821106    0.41894444635557   -1.55683169150940
 
 Bond Distances (Angstroems)
 ---------------------------
C1-H2=1.0894         C1-H3=1.0894         C1-H4=1.0894         C1-C5=1.4367         H2-C1=1.0894         H3-C1=1.0894         
H4-C1=1.0894         C5-C1=1.4367         C5-N6=1.1426         N6-C5=1.1426         
 C  H  Rav=1.0894 sigma=0.0000  Rmin=1.0894  Rmax=1.0894     3
 C  C  Rav=1.4367 sigma=0.0000  Rmin=1.4367  Rmax=1.4367     1
 N  C  Rav=1.1426 sigma=0.0000  Rmin=1.1426  Rmax=1.1426     1
 
 selected bond angles (degree)
 --------------------
H3-C1-H2=109.42                H4-C1-H2=109.42                H4-C1-H3=109.42                C5-C1-H2=109.53                
C5-C1-H3=109.51                C5-C1-H4=109.53                N6-C5-C1=179.91                
 
 selected dihedral angles (degree)
 ---------------------------------
N6-C5-C1-H2=240.01            N6-C5-C1-H3=  0.00            N6-C5-C1-H4=120.00            
 
             =======================================
             |                                     |
             |        S C C  calculation           |
             |                                     |
             =======================================
 #proc     :            2
 Ncao      :           15
 Nao       :           15
 Nel       :           16
 T(el)     :   300.0
 intcut    :    25.0
 scfconv   :  0.100E-05
   qconv   :  0.100E-03
 intneglect:  0.100E-07
 broydamp  :      0.400
 Nshell    :            9
 iter      E             dE          RMSdq      gap      omega  full diag
   1     -8.8678489 -0.886785E+01  0.528E-09    6.11       0.0  T
   2     -8.8678489 -0.355271E-14  0.292E-09    6.11  100000.0  T
   3     -8.8678489 -0.177636E-14  0.244E-09    6.11  100000.0  T
speedup  1.00
cpu  time for SCC    0.00 s
wall time for SCC    0.00 s

          eigenvalues
 #    :           1          2          3          4          5          6          7          8
 occ. :        2.000      2.000      2.000      2.000      2.000      2.000      2.000      2.000
 eps  :       -17.689    -17.246    -14.790    -14.327    -14.327    -12.656    -12.656    -11.612
 #    :           9         10         11         12         13         14         15
 occ. :        0.000      0.000      0.000      0.000      0.000      0.000      0.000
 eps  :        -5.502     -5.501      3.295      4.332      5.636      5.638     31.262
 

   #   Z            q   n(s)   n(p)   n(d)      C6AA      α(0)    relVol
   1   6 C     -0.106  1.022  3.084  0.000    22.787     6.838     0.553
   2   1 H      0.076  0.924  0.000  0.000     2.005     2.214     0.438
   3   1 H      0.076  0.924  0.000  0.000     2.005     2.214     0.438
   4   1 H      0.076  0.924  0.000  0.000     2.005     2.214     0.438
   5   6 C      0.118  1.162  2.719  0.000    28.212     8.577     0.694
   6   7 N     -0.241  1.635  3.605  0.000    26.251     7.401     0.982

 Mol. C6AA /au*bohr^6 :        377.350775
 Mol. C8AA /au*bohr^6 :       8635.258135
 Mol. a(0) /au        :         29.458613

 
 Wiberg/Mayer (AO) data. WBOs > 0.1 written file <wbo>
 largest (>0.05) Wiberg bond orders for each atom
           total WBO             WBO to atom ...
     1  C   3.995    C    5 1.070    H    4 0.954    H    2 0.954    H    3 0.954    N    6 0.065
     2  H   0.994    C    1 0.954
     3  H   0.994    C    1 0.954
     4  H   0.994    C    1 0.954
     5  C   3.947    N    6 2.850    C    1 1.070
     6  N   3.006    C    5 2.850    C    1 0.065
 
molecular dipole:
                 x           y           z       tot (Debye)
 q only:       -0.336      -0.476       0.823
   full:       -0.505      -0.715       1.237       3.851
molecular quadrupole (traceless):
                xx          xy          yy          xz          yz          zz
 q only:        1.147       0.598       0.941      -0.243       0.383      -2.088
  q+dip:        1.812       0.838       1.459      -0.257       0.727      -3.271
   full:        2.321       0.477       1.712       0.367       1.610      -4.033
 SCC converged in            3  cycles
 
SCC energy    :      -8.8678489
rep           :       0.1793510
ES            :       0.0098607
AES           :       0.0014913
AXC           :       0.0184462
disp          :      -0.0017413
XB            :       0.0000000
fix           :       0.0000000
total E       :      -8.6884978
atomizationE  :       1.7316169     1086.61
(atE without considerung molecular charge,
 total energy contains solvation terms)
H-L gap (eV)  :          6.1101
 !!!!!!!!!!!!!!!!!!!!!!!!!!!!!!!!!!!
 ! Note: the input coordinates are !
 ! NOT overwritten. The optimized  !
 ! ones are on file <xtbopt.coord> !
 ! (or on <xtbopt.xyz> if it was a !
 ! xyz file)                       !
 !!!!!!!!!!!!!!!!!!!!!!!!!!!!!!!!!!!
 
Molecule has the following symmetry elements: (C3) 3*(sigma) 
It seems to be the C3v point group
c3v symmetry found (for desy threshold:  0.10E+00) used in thermo
  q data taken from xtbrestart
  CAMM data taken from xtbrestart
 
             =======================================
             |                                     |
             |         Numerical Hessian           |
             |                                     |
             =======================================
step length          :   0.00500
SCC accuracy         :   0.30000
Hessian scale factor :   1.00000
frozen atoms in %    :   0.00000    0
RMS gradient         :   0.00013
estimated CPU  time      0.00 min
estimated wall time      0.00 min
 
 writing file <hessian>.
 
 projected vibrational frequencies (cm-1)
eig.   :       -0.00    -0.00    -0.00    -0.00     0.00     0.00
eig.   :      387.47   387.48   993.34   998.52   998.54  1367.87
eig.   :     1427.02  1427.07  2421.81  3018.08  3018.34  3020.10
 reduced masses (amu)
   1: 10.64   2:  6.48   3: 10.19   4:  9.73   5:  8.66   6: 12.76   7: 10.13   8: 10.13
   9: 10.43  10:  4.64  11:  4.64  12:  3.71  13:  1.54  14:  1.54  15: 12.77  16:  1.95
  17:  1.95  18:  1.25
 IR intensities (amu)
   1:  0.25   2:  0.07   3:  0.19   4:  0.19   5:  0.05   6:  0.22   7:  0.35   8:  0.35
   9:  0.38  10:  0.23  11:  0.23  12:  0.36  13:  0.09  14:  0.09  15:  1.60  16:  0.08
  17:  0.08  18:  0.03
 output can be read by thermo (or use thermo option).
 writing <g98.out> molden fake output.
 recommended (thermochemical) frequency scaling factor: 1.0
                    ==================
                    thermo calculation
                    ==================
Nvib :   12 Nimag : 0  symmetry :  c3v  rot number :  3  scale factor : 1.00 sthr :  50.
 
   temp. (K)  partition function   enthalpy   heat capacity  entropy
                                   cal/mol     cal/K/mol   cal/K/mol   J/K/mol
 298.15  VIB   1.44                  487.786      4.450      2.357
         ROT  0.243E+04              888.752      2.981     18.470
         INT  0.349E+04             1376.539      7.431     20.828
         TR   0.254E+27             1481.254      4.968     37.047
         TOT                        2857.7925    12.3992    57.8751   242.1486
                     Eh         kcal/mol          kJ/mol 
ZPVE            0.443460E-01     27.8275         116.430    
H(0)-H(T)+PV    0.455418E-02     2.85779         11.9570    
H(T)            0.489002E-01     30.6853         128.387    
T*S             0.274983E-01     17.2555         72.1966    
G(T)            0.214018E-01     13.4298         56.1903    
     -8.66709602  <=== TOTAL FREE ENERGY in Eh incl. el.,ZPVE,RRHO,solv. parts
 
Eat (element increment corrected) /kcal :   820.751
        -178.980  <=== HOF(298)/kcal, to be compared to exptl. data
 
 normal mode %tage of torsion character
   1:  0.00   2:  0.00   3:  0.00   4:  0.00   5:  0.00   6:  0.00   7:  1.00   8:  1.00
   9:  0.81  10:  1.00  11:  1.00  12:  0.50  13:  1.00  14:  0.84  15:  0.00  16:  0.94
  17:  1.00  18:  0.48
 recommended # of modes for mode following           4
 
speedup  0.92
cpu  time for all    0.22 s
wall time for all    0.24 s
