 Entering Gaussian System
 *********************************************
 Gaussian 98:
 frequency output generated by the xtb code
 *********************************************
                         Standard orientation:
 --------------------------------------------------------------------
  Center     Atomic     Atomic              Coordinates (Angstroms)
  Number     Number      Type              X           Y           Z
 --------------------------------------------------------------------
    1          6             0       -0.783997   -0.797595    0.548615
    2          1             0       -0.421372   -1.824838    0.549896
    3          1             0       -0.421008   -0.284264    1.438292
    4          1             0       -1.873366   -0.798096    0.549896
    5          6             0       -0.305312   -0.120650   -0.624735
    6          7             0        0.076249    0.418944   -1.556832
 --------------------------------------------------------------------
     1 basis functions        1 primitive gaussians
     1 alpha electrons        1 beta electrons
 
 Harmonic frequencies (cm**-1), IR intensities (KM/Mole),
 Raman scattering activities (A**4/amu), Raman depolarization ratios,
 reduced masses (AMU), force constants (mDyne/A) and normal coordinates:
                      1                      2                      3
                        a                      a                      a 
 Frequencies --   387.4664               387.4810               998.5222
 Red. masses --    99.0000                99.0000                99.0000
 Frc consts  --    99.0000                99.0000                99.0000
 IR Inten    --    99.0000                99.0000                99.0000
 Raman Activ --     0.0000                 0.0000                 0.0000
 Depolar     --     0.0000                 0.0000                 0.0000
 Atom AN      X      Y      Z        X      Y      Z        X      Y      Z
   1   6    -0.08   0.10   0.02    -0.09  -0.06  -0.07    -0.29   0.32   0.07
   2   1    -0.20  -0.03   0.27    -0.08  -0.04  -0.14     0.30   0.20  -0.50
   3   1    -0.07   0.16  -0.05    -0.20  -0.21   0.15     0.10  -0.23   0.12
   4   1    -0.03   0.21  -0.14    -0.03   0.03  -0.27    -0.06  -0.36   0.30
   5   6     0.48  -0.56  -0.13     0.52   0.35   0.42     0.24  -0.27  -0.06
   6   7    -0.29   0.34   0.08    -0.31  -0.21  -0.25    -0.04   0.05   0.01
                      4                      5                      6
                        a                      a                      a 
 Frequencies --   998.5356               993.3380              1427.0195
 Red. masses --    99.0000                99.0000                99.0000
 Frc consts  --    99.0000                99.0000                99.0000
 IR Inten    --    99.0000                99.0000                99.0000
 Raman Activ --     0.0000                 0.0000                 0.0000
 Depolar     --     0.0000                 0.0000                 0.0000
 Atom AN      X      Y      Z        X      Y      Z        X      Y      Z
   1   6    -0.30  -0.21  -0.24    -0.22  -0.31   0.54     0.18  -0.11   0.01
   2   1     0.11   0.02   0.24    -0.10  -0.10   0.21    -0.20  -0.09  -0.45
   3   1     0.30   0.32  -0.42    -0.10  -0.13   0.19    -0.57   0.44  -0.02
   4   1    -0.06  -0.09   0.47    -0.06  -0.12   0.21     0.02   0.11   0.42
   5   6     0.25   0.17   0.20     0.11   0.15  -0.26     0.04  -0.02   0.00
   6   7    -0.05  -0.03  -0.04     0.17   0.24  -0.42    -0.01   0.00  -0.00
                      7                      8                      9
                        a                      a                      a 
 Frequencies --  1427.0688              1367.8714              3018.3419
 Red. masses --    99.0000                99.0000                99.0000
 Frc consts  --    99.0000                99.0000                99.0000
 IR Inten    --    99.0000                99.0000                99.0000
 Raman Activ --     0.0000                 0.0000                 0.0000
 Depolar     --     0.0000                 0.0000                 0.0000
 Atom AN      X      Y      Z        X      Y      Z        X      Y      Z
   1   6    -0.08  -0.15  -0.12     0.16   0.23  -0.40     0.24  -0.16   0.01
   2   1     0.58   0.19   0.12    -0.24  -0.06   0.43    -0.20   0.64   0.00
   3   1    -0.22  -0.20   0.18    -0.24  -0.35   0.27     0.02  -0.04  -0.03
   4   1    -0.01   0.64   0.20     0.03  -0.25   0.43    -0.68  -0.02  -0.00
   5   6    -0.02  -0.03  -0.03    -0.01  -0.01   0.02     0.01  -0.00   0.00
   6   7     0.00   0.00   0.00    -0.02  -0.03   0.05     0.00   0.00  -0.00
                     10                     11                     12
                        a                      a                      a 
 Frequencies --  3018.0773              3020.1045              2421.8091
 Red. masses --    99.0000                99.0000                99.0000
 Frc consts  --    99.0000                99.0000                99.0000
 IR Inten    --    99.0000                99.0000                99.0000
 Raman Activ --     0.0000                 0.0000                 0.0000
 Depolar     --     0.0000                 0.0000                 0.0000
 Atom AN      X      Y      Z        X      Y      Z        X      Y      Z
   1   6     0.12   0.19   0.18     0.06   0.08  -0.10    -0.03  -0.04   0.08
   2   1     0.14  -0.33   0.02     0.21  -0.56  -0.01    -0.01   0.01   0.01
   3   1    -0.27  -0.38  -0.68     0.17   0.25   0.39    -0.01  -0.02   0.00
   4   1    -0.31   0.03   0.02    -0.61   0.01  -0.01     0.01  -0.01   0.01
   5   6     0.00   0.00   0.01     0.01   0.01  -0.02     0.26   0.37  -0.63
   6   7     0.00   0.00  -0.00    -0.01  -0.01   0.01    -0.21  -0.29   0.51
