 
        ______________________________________
       |                                      |
       |           ==================         |
       |                 x T B                |
       |           ==================         |
       |               S. Grimme              |
       |        Universitaet Bonn, MCTC       |
       |         2015-18, Version 5.8.1       |
       |      Sun May  6 11:39:08 CEST 2018   |
       |______________________________________|
 
        This code comes without any warranty
        for non-commercial, academia use only.
        Preliminary GFN2 test version.
        Test license to: Dow Chemical Company
        Cite GFN-xTB work as:
        S. Grimme, C. Bannwarth, P. Shushkov
        JCTC, 13 (2017) 1989-2009
        for GFN2:
        C. Bannwarth, S. Ehlert, S. Grimme
        to be published.
        sTDA-xTB:
        S. Grimme  &  C. Bannwarth, JCP 145 (2016) 054103
        in the mass-spec context additionally:
        V. Asgeirsson, C.Bauer, S. Grimme, Chem. Sci. 8 (2017) 4879
 
        with help from
        P. Shushkov, G. Brandenburg, S. Dohm, J. Pisarek,
        F. März, M. Checinski, S. Ehrlich, S. Spicher, 
        P. Pracht, E. Caldeweyher, S. Ehlert, and C. Bannwarth.
 
        usage        :
        xtb <coord_file> [options]
        where <coord_file> is a valid file of TM)
        (*coord, Bohr) or xmol (*xyz, Angstroem)
        format.

        options:
        -chrg <int>   : molecular charge
        -uhf  <int>   : # of unpaired electrons(=2*S)
        -nox          : skip second, extended part in sTDA-xTB
        -pop          : do population analysis
                      : (default for -nox)
        -mowr <real>  : cut MO write above (def.3 Eh)
        -molden       : write formatted molden file
        -parx <file>  : read parameters for sTDA-xTB
                        calc (def:~/.param_stda2.xtb)
        -parv <file>  : read parameters for vTB part in
                        sTDA-xTB (def: ~/.param_stda1.xtb)
        -xtemp <real> : el. temp for xTB (def. 0 K)
        -etemp <real> : el. temp for GFN (def. 300 K)
        -fod          : calculate the FOD and write
                        molden.input file with
                        appropriate occupations
                        for plotting. Def. T=12500 K
 
        -gfn1         : use GFN-xTB
        -gfn2         : use GFN2-xTB
        -gfn2d3       : GFN2-xTB with D3 instead of D4
        -grad         : GFNn-xTB gradient
        -acc <real>   : GFNn-xTB accuracy (def. 1.0)
        -opt [level]  : optimize at GFNn-xTB
                      : level=crude,vloose,loose,
                      :       tight,vtight
        -hess         : compute Hessian at GFNn-xTB
        -ohess        : optimize and compute Hessian
        -omd          : optimize and do MD
        -siman        : conformational search
        -screen       : opt. loop over ensemble
        -gmd          : annealed MD for GMD procedure
        -modef        : vib mode following
        -gbsa [string1] [string2]
                        use GBSA implicit solvent
                        for solvent [string1] and
                        solvation state [string2]=
                        reference, bar1M (default=1M)
        additional GFN/opt/MD/siman options read from
        $XTBHOME/.xtbrc or $set in coordinate file
 
       spin and charge state information can be on:
       <.CHRG> (charge) and <.UHF> (=nalpha-nbeta)
       -uhf and -chrg override the file info.
       useful machine settings:
       setenv MKL_NUM_THREADS <NCORE_ON_YOUR_MACHINE>
       setenv OMP_STACKSIZE 500m
       limit stacksize unlimited
 
       total energies in Eh, gaps/HL energies in eV
       please read REVISION and HOWTO files carefully
         143  days left until this code expires
 =============================
  # OMP threads =           2
 =============================
 
 xtbhome directory:/home/ua25450/dftb/
 
 argument            1 :-siman
 
 name of molecule           :
 comment line               :
 number of atoms            :    15
 number of electrons        :    32
 charge                     :  0
 spin                       : 0.0
 first test random number   :  0.9319
 
 
 -----------------------------------------
  G F N (Geometry, Frequency, Non-covalent)
        parametrization, gfnver=           3
     D4 dispersion model
 /home/ua25450/dftb/.param_gfn2.xtb
 -----------------------------------------
      method parameters     
 k(s)        :  1.8500
 k(p)        :  2.2300
 k(d)        :  2.2300
 k(f)        :  2.0000
 kEN (H0ij)  : -2.0000
 D3 a1       :  0.5200
 D3 a2       :  5.0000
 D3 s8       :  2.7000
 D3atm       :  5.0000
 alphaj      :  2.0000
 
     -------------------------
     ! NO SOLVENT MODEL USED !
     -------------------------
 
 doing EN charges ...
 sum q : -0.7771561D-15
 point charge moment (au)
     X       Y       Z   
   0.1463   0.2069  -0.0557  total (Debye):    0.660
 
            Z     q(EN)     CN     RAES       Cart. coordinates
     1  C   4.0   -0.09    4.11    3.81    -6.87138     0.44580     0.01878
     2  H   1.0    0.05    1.01    1.43    -6.21449    -1.50818     0.06400
     3  H   1.0    0.05    1.01    1.43    -8.93257     0.41243     0.06342
     4  C   4.0   -0.03    4.04    3.70    -5.93217     1.77569     2.39562
     5  H   1.0    0.04    1.00    1.43    -3.85290     1.80196     2.41070
     6  H   1.0    0.04    1.00    1.43    -6.60097     3.74464     2.40971
     7  O   6.0   -0.17    2.03    1.83    -6.86198     0.46148     4.52380
     8  H   1.0    0.11    1.02    1.43    -6.27947     1.28600     6.03645
     9  C   4.0   -0.09    4.06    3.72    -5.95322     1.74442    -2.38491
    10  H   1.0    0.04    1.01    1.43    -3.88885     1.78128    -2.39642
    11  H   1.0    0.04    1.01    1.43    -6.61172     3.70127    -2.39923
    12  C   4.0   -0.13    4.02    3.65    -6.90074     0.39715    -4.74619
    13  H   1.0    0.04    1.00    1.43    -8.95531     0.37322    -4.78558
    14  H   1.0    0.04    1.00    1.43    -6.22941     1.34783    -6.44003
    15  H   1.0    0.04    1.00    1.43    -6.23212    -1.54578    -4.78336
 
  Z AO/shell   Hii/eV     exponent
  1     Wed Apr 25 08:07:45 CEST 2018   EN: 2.200 GM2: 0.406  GM3: 0.0800  RAES: 1.40
     1s    -10.707211    1.230000
  6     Wed Apr 25 08:07:45 CEST 2018   EN: 2.550 GM2: 0.538  GM3: 0.1500  RAES: 3.00
     2s    -13.970922    2.096432
     2p    -10.063292    1.800000
  8     Wed Apr 25 08:07:45 CEST 2018   EN: 3.440 GM2: 0.452  GM3:-0.0517  RAES: 1.80
     2s    -20.229985    2.439742
     2p    -15.503117    2.137023
 no old-style atom pair restraing (fixing) potential
 
             =======================================
             |                                     |
             |        S C C  calculation           |
             |                                     |
             =======================================
 #proc     :            2
 Ncao      :           30
 Nao       :           30
 Nel       :           32
 T(el)     :   300.0
 intcut    :    25.0
 scfconv   :  0.100E-05
   qconv   :  0.100E-03
 intneglect:  0.100E-07
 broydamp  :      0.400
 Nshell    :           20
 iter      E             dE          RMSdq      gap      omega  full diag
   1    -17.8998157 -0.178998E+02  0.376E+00   12.21       0.0  T
   2    -17.9322358 -0.324201E-01  0.188E+00   12.15       1.0  T
   3    -17.9348054 -0.256953E-02  0.572E-01   12.02       1.0  T
   4    -17.9349590 -0.153647E-03  0.195E-01   12.05       1.0  T
   5    -17.9350145 -0.554850E-04  0.591E-02   12.10       1.0  T
   6    -17.9350195 -0.501693E-05  0.248E-02   12.11       1.0  T
   7    -17.9350199 -0.343520E-06  0.502E-03   12.11       5.1  T
   8    -17.9350199 -0.364658E-07  0.193E-03   12.11      13.4  T
   9    -17.9350199 -0.121902E-08  0.321E-04   12.11      80.4  T
  10    -17.9350199 -0.508269E-09  0.101E-04   12.11     256.9  T
speedup  1.97
cpu  time for SCC    0.02 s
wall time for SCC    0.01 s

          eigenvalues
 #    :           4          5          6          7          8          9         10         11
 occ. :        2.000      2.000      2.000      2.000      2.000      2.000      2.000      2.000
 eps  :       -15.797    -15.551    -14.956    -14.521    -13.932    -13.681    -13.196    -12.647
 #    :          12         13         14         15         16         17         18         19
 occ. :        2.000      2.000      2.000      2.000      2.000      0.000      0.000      0.000
 eps  :       -12.411    -11.910    -11.891    -11.609    -11.076      1.031      2.710      3.289
 #    :          20         21         22         23         24         25         26         27
 occ. :        0.000      0.000      0.000      0.000      0.000      0.000      0.000      0.000
 eps  :         3.414      3.962      4.365      4.497      5.002      5.033      6.408      6.565
 

   #   Z            q   n(s)   n(p)   n(d)      C6AA      α(0)    relVol
   1   6 C     -0.066  1.051  3.014  0.000    21.820     6.658     0.539
   2   1 H      0.049  0.951  0.000  0.000     2.322     2.383     0.471
   3   1 H      0.049  0.951  0.000  0.000     2.322     2.383     0.471
   4   6 C      0.089  1.035  2.876  0.000    19.449     6.343     0.513
   5   1 H      0.013  0.987  0.000  0.000     2.841     2.636     0.522
   6   1 H      0.013  0.987  0.000  0.000     2.841     2.636     0.522
   7   8 O     -0.443  1.708  4.734  0.000    22.205     6.375     1.227
   8   1 H      0.284  0.716  0.000  0.000     0.710     1.322     0.262
   9   6 C     -0.055  1.048  3.008  0.000    21.656     6.637     0.537
  10   1 H      0.030  0.970  0.000  0.000     2.584     2.513     0.497
  11   1 H      0.030  0.970  0.000  0.000     2.583     2.513     0.497
  12   6 C     -0.104  1.036  3.067  0.000    22.680     6.811     0.551
  13   1 H      0.037  0.963  0.000  0.000     2.480     2.462     0.487
  14   1 H      0.036  0.964  0.000  0.000     2.503     2.474     0.489
  15   1 H      0.037  0.963  0.000  0.000     2.480     2.463     0.487

 Mol. C6AA /au*bohr^6 :       1469.378412
 Mol. C8AA /au*bohr^6 :      29992.173046
 Mol. a(0) /au        :         56.608522

 
 Wiberg/Mayer (AO) data. WBOs > 0.1 written file <wbo>
 largest (>0.05) Wiberg bond orders for each atom
           total WBO             WBO to atom ...
     1  C   3.994    C    9 1.008    C    4 1.004    H    3 0.976    H    2 0.976
     2  H   0.998    C    1 0.976
     3  H   0.998    C    1 0.976
     4  C   3.957    C    1 1.004    O    7 0.994    H    6 0.972    H    5 0.972
     5  H   1.000    C    4 0.972
     6  H   1.000    C    4 0.972
     7  O   1.950    C    4 0.994    H    8 0.905
     8  H   0.919    O    7 0.905
     9  C   3.998    C   12 1.020    C    1 1.008    H   11 0.978    H   10 0.978
    10  H   0.999    C    9 0.978
    11  H   0.999    C    9 0.978
    12  C   3.996    C    9 1.020    H   13 0.988    H   15 0.988    H   14 0.987
    13  H   0.999    C   12 0.988
    14  H   0.998    C   12 0.987
    15  H   0.999    C   12 0.988
 
molecular dipole:
                 x           y           z       tot (Debye)
 q only:        0.239       0.338      -0.110
   full:        0.665       0.543       0.000       1.689
molecular quadrupole (traceless):
                xx          xy          yy          xz          yz          zz
 q only:       -4.500      -2.854       1.218       3.058       2.645       3.283
  q+dip:       -5.826      -5.561       2.652       3.026       4.282       3.174
   full:       -6.482      -5.070       2.344       2.979       4.218       4.138
 SCC converged in           10  cycles
 
SCC energy    :     -17.9350199
rep           :       0.2144387
ES            :       0.0264837
AES           :       0.0043547
AXC           :       0.0057624
disp          :      -0.0069078
XB            :       0.0000000
fix           :       0.0000000
total E       :     -17.7205813
atomizationE  :       3.5284486     2214.14
(atE without considerung molecular charge,
 total energy contains solvation terms)
H-L gap (eV)  :         12.1068
 
       =======================================
       |              S I M A N              |
       |         conformational search       |
       =======================================
 
 trajectories on xtb.trj.<n>
Max. temperature : 1000.0
Min. temperature :  298.1
time (ps)        :   50.0
 optlevel        :           0
 nall            :         151
 
 MD time /ps        :   16.67
 dt /fs             :    4.00
 SCC accuracy       :    1.00
 temperature /K     :  149.07
 max steps          :  4166
 block length (av.) :   875
 dumpstep(trj) /fs  :   50.00    12
 dumpstep(coords)/fs: 1000.00   250
 minimum runtime(ps):   5.0
 maximum runtime(ps):  16.7
 H atoms mass (amu) :     4
 # deg. of freedom  :    31
 SHAKE on. # bonds  :          14  all: T
 Berendsen THERMOSTAT on
 EQUILIBRATION mode
         time (ps)    <Epot>      Ekin   <T>   T     Etot
  q data taken from xtbrestart
  CAMM data taken from xtbrestart
      0    0.00      0.00000   0.0066    0.    0.   -17.71400
est. speed in wall clock h for 100 ps :  0.03
    200    0.80    -17.63019   0.0017   44.   34.   -17.71653
    400    1.60    -17.67412   0.0021   44.   42.   -17.71643
    600    2.40    -17.68882   0.0028   45.   57.   -17.71616
    800    3.20    -17.69617   0.0019   45.   39.   -17.71623
block <Epot> / <T> :     -17.71829   45.     drift:  0.99D+02   Tbath :  67.
   1000    4.00    -17.70049   0.0027   46.   56.   -17.71473
   1200    4.80    -17.70326   0.0027   50.   56.   -17.71348
   1400    5.60    -17.70524   0.0033   52.   68.   -17.71231
   1600    6.40    -17.70672   0.0034   54.   70.   -17.71354
block <Epot> / <T> :     -17.71716   66.     drift:  0.99D+02   Tbath : 101.
   1800    7.20    -17.70785   0.0055   56.  112.   -17.71190
   2000    8.00    -17.70862   0.0036   60.   74.   -17.71102
   2200    8.80    -17.70923   0.0037   64.   76.   -17.71075
   2400    9.60    -17.70975   0.0046   67.   93.   -17.70841
   2600   10.40    -17.71018   0.0060   69.  122.   -17.71041
block <Epot> / <T> :     -17.71548   99.     drift:  0.99D+02   Tbath : 149.
   2800   11.20    -17.71043   0.0081   74.  166.   -17.70443
   3000   12.00    -17.71071   0.0063   79.  129.   -17.70811
   3200   12.80    -17.71098   0.0066   83.  135.   -17.70760
   3400   13.60    -17.71122   0.0074   87.  151.   -17.70691
block <Epot> / <T> :     -17.71463  148.     drift:  0.13D-02   Tbath : 149.
 GOOD AVERAGES REACHED
 average properties 
 Epot               :  -17.7163889064806     
 Epot (accurate SCC):  -17.7163200083149     
 Ekin               :  4.376058024121779E-003
 Etot               :  -17.7120128484565     
 T                  :   89.1514966980834     
 normal exit of md()
 
 ===========================
 annealing step            1
 ===========================
 
 MD time /ps        :   50.00
 dt /fs             :    4.00
 SCC accuracy       :    1.00
 temperature /K     :  298.15
 max steps          : 12500
 block length (av.) :   875
 dumpstep(trj) /fs  :   50.00    12
 dumpstep(coords)/fs: 1000.00   250
 H atoms mass (amu) :     4
 # deg. of freedom  :    31
 SHAKE on. # bonds  :          14  all: T
 Berendsen THERMOSTAT on
 RESTART
         time (ps)    <Epot>      Ekin   <T>   T     Etot
  q data taken from xtbrestart
  CAMM data taken from xtbrestart
      0    0.00      0.00000   0.0067    0.    0.   -17.70860
est. speed in wall clock h for 100 ps :  0.03
    200    0.80    -17.62447   0.0118  192.  240.   -17.69863
    400    1.60    -17.66698   0.0086  222.  175.   -17.69449
    600    2.40    -17.68041   0.0115  236.  235.   -17.69389
    800    3.20    -17.68707   0.0135  250.  276.   -17.69481
block <Epot> / <T> :     -17.70900  254.     drift:  0.99D+02   Tbath : 298.
   1000    4.00    -17.69104   0.0116  259.  237.   -17.69677
   1200    4.80    -17.69375   0.0118  266.  241.   -17.69225
   1400    5.60    -17.69570   0.0168  271.  342.   -17.69324
   1600    6.40    -17.69713   0.0184  274.  375.   -17.69062
block <Epot> / <T> :     -17.70711  297.     drift:  0.99D+02   Tbath : 298.
   1800    7.20    -17.69820   0.0160  276.  327.   -17.69124
   2000    8.00    -17.69909   0.0181  279.  369.   -17.69510
   2200    8.80    -17.69973   0.0156  279.  318.   -17.69091
   2400    9.60    -17.70017   0.0177  280.  361.   -17.68982
   2600   10.40    -17.70061   0.0130  282.  264.   -17.69273
block <Epot> / <T> :     -17.70614  296.     drift:  0.99D+02   Tbath : 298.
   2800   11.20    -17.70106   0.0179  284.  364.   -17.69044
   3000   12.00    -17.70138   0.0160  284.  327.   -17.69152
   3200   12.80    -17.70171   0.0128  285.  260.   -17.69461
   3400   13.60    -17.70201   0.0142  286.  289.   -17.68979
block <Epot> / <T> :     -17.70654  299.     drift:  0.84D-03   Tbath : 298.
   3600   14.40    -17.70227   0.0131  287.  266.   -17.69710
   3800   15.20    -17.70248   0.0180  287.  366.   -17.69129
   4000   16.00    -17.70267   0.0172  288.  350.   -17.69170
   4200   16.80    -17.70286   0.0184  288.  375.   -17.68668
block <Epot> / <T> :     -17.70644  298.     drift:  0.16D-03   Tbath : 298.
   4400   17.60    -17.70301   0.0140  288.  286.   -17.69310
   4600   18.40    -17.70315   0.0118  289.  240.   -17.69233
   4800   19.20    -17.70327   0.0171  289.  349.   -17.69127
   5000   20.00    -17.70337   0.0146  289.  297.   -17.69066
   5200   20.80    -17.70348   0.0111  290.  226.   -17.69789
block <Epot> / <T> :     -17.70601  297.     drift:  0.47D-04   Tbath : 298.
   5400   21.60    -17.70357   0.0187  290.  382.   -17.68489
   5600   22.40    -17.70366   0.0084  290.  170.   -17.69509
   5800   23.20    -17.70374   0.0146  291.  297.   -17.68798
   6000   24.00    -17.70382   0.0135  291.  275.   -17.69207
block <Epot> / <T> :     -17.70602  297.     drift:  0.20D-03   Tbath : 298.
   6200   24.80    -17.70389   0.0147  291.  299.   -17.68855
   6400   25.60    -17.70396   0.0116  291.  236.   -17.69064
   6600   26.40    -17.70402   0.0174  291.  355.   -17.69376
   6800   27.20    -17.70410   0.0125  292.  254.   -17.69550
   7000   28.00    -17.70417   0.0196  292.  400.   -17.68810
block <Epot> / <T> :     -17.70637  300.     drift:  0.21D-04   Tbath : 298.
   7200   28.80    -17.70424   0.0140  292.  286.   -17.68939
   7400   29.60    -17.70431   0.0156  292.  318.   -17.68743
   7600   30.40    -17.70437   0.0185  292.  376.   -17.68964
   7800   31.20    -17.70443   0.0158  293.  321.   -17.69083
block <Epot> / <T> :     -17.70666  297.     drift: -0.23D-03   Tbath : 298.
   8000   32.00    -17.70449   0.0129  293.  263.   -17.69653
   8200   32.80    -17.70454   0.0202  293.  411.   -17.69124
   8400   33.60    -17.70459   0.0145  293.  295.   -17.69029
   8600   34.40    -17.70464   0.0154  293.  314.   -17.69317
block <Epot> / <T> :     -17.70663  297.     drift: -0.21D-03   Tbath : 298.
   8800   35.20    -17.70468   0.0169  293.  344.   -17.69317
   9000   36.00    -17.70472   0.0150  293.  305.   -17.69338
   9200   36.80    -17.70477   0.0170  293.  346.   -17.68925
   9400   37.60    -17.70481   0.0149  293.  303.   -17.69773
   9600   38.40    -17.70485   0.0134  294.  273.   -17.69044
block <Epot> / <T> :     -17.70669  298.     drift: -0.93D-04   Tbath : 298.
   9800   39.20    -17.70488   0.0189  294.  386.   -17.69257
  10000   40.00    -17.70492   0.0195  294.  398.   -17.69042
  10200   40.80    -17.70495   0.0125  294.  254.   -17.69377
  10400   41.60    -17.70498   0.0192  294.  392.   -17.69243
block <Epot> / <T> :     -17.70648  296.     drift:  0.50D-04   Tbath : 298.
  10600   42.40    -17.70500   0.0132  294.  269.   -17.69331
  10800   43.20    -17.70503   0.0102  294.  208.   -17.69513
  11000   44.00    -17.70505   0.0148  294.  302.   -17.69557
  11200   44.80    -17.70507   0.0122  294.  248.   -17.69007
block <Epot> / <T> :     -17.70601  294.     drift:  0.21D-03   Tbath : 298.
  11400   45.60    -17.70507   0.0196  294.  400.   -17.68788
  11600   46.40    -17.70507   0.0167  294.  339.   -17.68550
  11800   47.20    -17.70510   0.0139  294.  284.   -17.69436
  12000   48.00    -17.70512   0.0138  294.  281.   -17.69377
  12200   48.80    -17.70514   0.0219  294.  447.   -17.68998
block <Epot> / <T> :     -17.70606  300.     drift:  0.24D-03   Tbath : 298.
  12400   49.60    -17.70516   0.0114  294.  233.   -17.69281
 average properties 
 Epot               :  -17.7051744091612     
 Epot (accurate SCC):  -17.7066638591688     
 Ekin               :  1.445246005948254E-002
 Etot               :  -17.6907219491017     
 T                  :   294.433583414545     
 normal exit of md()
 
 ===========================
 annealing step            2
 ===========================
 
 MD time /ps        :   50.00
 dt /fs             :    4.00
 SCC accuracy       :    1.00
 temperature /K     :  649.08
 max steps          : 12500
 block length (av.) :   875
 dumpstep(trj) /fs  :   50.00    12
 dumpstep(coords)/fs: 1000.00   250
 H atoms mass (amu) :     4
 # deg. of freedom  :    31
 SHAKE on. # bonds  :          14  all: T
 Berendsen THERMOSTAT on
 RESTART
         time (ps)    <Epot>      Ekin   <T>   T     Etot
  q data taken from xtbrestart
  CAMM data taken from xtbrestart
      0    0.00      0.00000   0.0087    0.    0.   -17.69306
est. speed in wall clock h for 100 ps :  0.03
    200    0.80    -17.61279   0.0302  405.  616.   -17.67336
    400    1.60    -17.65337   0.0375  473.  764.   -17.66418
    600    2.40    -17.66592   0.0302  514.  615.   -17.66605
    800    3.20    -17.67191   0.0418  544.  852.   -17.64875
block <Epot> / <T> :     -17.69360  552.     drift:  0.99D+02   Tbath : 649.
   1000    4.00    -17.67538   0.0252  562.  514.   -17.65969
   1200    4.80    -17.67763   0.0351  575.  714.   -17.65392
   1400    5.60    -17.67925   0.0244  586.  497.   -17.67006
   1600    6.40    -17.68024   0.0379  591.  773.   -17.65566
block <Epot> / <T> :     -17.68887  647.     drift:  0.99D+02   Tbath : 649.
   1800    7.20    -17.68136   0.0294  601.  599.   -17.65715
   2000    8.00    -17.68221   0.0335  606.  682.   -17.66337
   2200    8.80    -17.68305   0.0427  611.  870.   -17.64584
   2400    9.60    -17.68366   0.0285  613.  580.   -17.66362
   2600   10.40    -17.68405   0.0287  615.  584.   -17.66083
block <Epot> / <T> :     -17.69006  648.     drift:  0.99D+02   Tbath : 649.
   2800   11.20    -17.68435   0.0274  617.  559.   -17.66415
   3000   12.00    -17.68467   0.0252  619.  512.   -17.65571
   3200   12.80    -17.68495   0.0389  621.  792.   -17.66246
   3400   13.60    -17.68521   0.0337  623.  686.   -17.65588
block <Epot> / <T> :     -17.68910  649.     drift:  0.12D-02   Tbath : 649.
   3600   14.40    -17.68550   0.0345  625.  702.   -17.65395
   3800   15.20    -17.68574   0.0218  626.  445.   -17.65627
   4000   16.00    -17.68590   0.0320  627.  651.   -17.64820
   4200   16.80    -17.68606   0.0311  628.  634.   -17.66531
block <Epot> / <T> :     -17.68931  644.     drift: -0.36D-04   Tbath : 649.
   4400   17.60    -17.68614   0.0330  628.  673.   -17.65555
   4600   18.40    -17.68624   0.0286  629.  583.   -17.65781
   4800   19.20    -17.68635   0.0226  630.  460.   -17.66081
   5000   20.00    -17.68647   0.0247  631.  503.   -17.66691
   5200   20.80    -17.68663   0.0287  632.  584.   -17.65126
block <Epot> / <T> :     -17.68931  653.     drift:  0.21D-03   Tbath : 649.
   5400   21.60    -17.68679   0.0343  633.  699.   -17.65322
   5600   22.40    -17.68691   0.0357  633.  728.   -17.64508
   5800   23.20    -17.68698   0.0268  633.  547.   -17.65920
   6000   24.00    -17.68704   0.0318  634.  648.   -17.64995
block <Epot> / <T> :     -17.68951  645.     drift: -0.12D-03   Tbath : 649.
   6200   24.80    -17.68709   0.0299  634.  609.   -17.66337
   6400   25.60    -17.68718   0.0299  635.  610.   -17.66260
   6600   26.40    -17.68726   0.0306  635.  624.   -17.66290
   6800   27.20    -17.68734   0.0321  636.  654.   -17.65823
   7000   28.00    -17.68746   0.0320  637.  652.   -17.66178
block <Epot> / <T> :     -17.69015  655.     drift: -0.27D-03   Tbath : 649.
   7200   28.80    -17.68756   0.0239  637.  487.   -17.65632
   7400   29.60    -17.68762   0.0362  637.  738.   -17.64716
   7600   30.40    -17.68766   0.0373  637.  760.   -17.65396
   7800   31.20    -17.68769   0.0386  637.  786.   -17.64299
block <Epot> / <T> :     -17.68958  640.     drift: -0.15D-03   Tbath : 649.
   8000   32.00    -17.68772   0.0303  637.  618.   -17.65987
   8200   32.80    -17.68775   0.0365  638.  744.   -17.64704
   8400   33.60    -17.68779   0.0340  638.  693.   -17.66047
   8600   34.40    -17.68781   0.0313  638.  639.   -17.65477
block <Epot> / <T> :     -17.68920  651.     drift:  0.15D-03   Tbath : 649.
   8800   35.20    -17.68785   0.0303  638.  616.   -17.66460
   9000   36.00    -17.68786   0.0393  638.  801.   -17.65170
   9200   36.80    -17.68786   0.0213  638.  434.   -17.66282
   9400   37.60    -17.68786   0.0366  639.  746.   -17.64680
   9600   38.40    -17.68787   0.0203  639.  413.   -17.66053
block <Epot> / <T> :     -17.68818  646.     drift:  0.63D-03   Tbath : 649.
   9800   39.20    -17.68789   0.0365  639.  743.   -17.64968
  10000   40.00    -17.68792   0.0244  639.  497.   -17.66089
  10200   40.80    -17.68792   0.0287  639.  584.   -17.64555
  10400   41.60    -17.68792   0.0235  639.  478.   -17.65720
block <Epot> / <T> :     -17.68849  647.     drift:  0.43D-03   Tbath : 649.
  10600   42.40    -17.68793   0.0314  640.  639.   -17.65846
  10800   43.20    -17.68798   0.0384  640.  781.   -17.65178
  11000   44.00    -17.68800   0.0454  640.  925.   -17.65271
  11200   44.80    -17.68803   0.0182  640.  371.   -17.65617
block <Epot> / <T> :     -17.68966  651.     drift: -0.17D-03   Tbath : 649.
  11400   45.60    -17.68806   0.0347  641.  706.   -17.66283
  11600   46.40    -17.68808   0.0226  641.  460.   -17.66386
  11800   47.20    -17.68808   0.0255  641.  520.   -17.65828
  12000   48.00    -17.68808   0.0380  641.  774.   -17.64718
  12200   48.80    -17.68808   0.0458  641.  933.   -17.63953
block <Epot> / <T> :     -17.68828  644.     drift: -0.15D-03   Tbath : 649.
  12400   49.60    -17.68809   0.0401  641.  817.   -17.65112
 average properties 
 Epot               :  -17.6880820739825     
 Epot (accurate SCC):  -17.6892349818495     
 Ekin               :  3.145789314440368E-002
 Etot               :  -17.6566241808381     
 T                  :   640.877758323325     
 normal exit of md()
 
 ===========================
 annealing step            3
 ===========================
 
 MD time /ps        :   50.00
 dt /fs             :    4.00
 SCC accuracy       :    1.00
 temperature /K     : 1000.00
 max steps          : 12500
 block length (av.) :   875
 dumpstep(trj) /fs  :   50.00    12
 dumpstep(coords)/fs: 1000.00   250
 H atoms mass (amu) :     4
 # deg. of freedom  :    31
 SHAKE on. # bonds  :          14  all: T
 Berendsen THERMOSTAT on
 RESTART
         time (ps)    <Epot>      Ekin   <T>   T     Etot
  q data taken from xtbrestart
  CAMM data taken from xtbrestart
      0    0.00      0.00000   0.0456    0.    0.   -17.65202
est. speed in wall clock h for 100 ps :  0.03
    200    0.80    -17.59556   0.0377  768.  768.   -17.62068
    400    1.60    -17.63588   0.0329  827.  671.   -17.62155
    600    2.40    -17.64801   0.0416  866.  848.   -17.62282
    800    3.20    -17.65390   0.0450  895.  917.   -17.62408
block <Epot> / <T> :     -17.67540  900.     drift:  0.99D+02   Tbath :1000.
   1000    4.00    -17.65708   0.0464  912.  945.   -17.60904
   1200    4.80    -17.65963   0.0550  931. 1121.   -17.62022
   1400    5.60    -17.66136   0.0538  939. 1097.   -17.62140
   1600    6.40    -17.66302   0.0497  950. 1013.   -17.62453
block <Epot> / <T> :     -17.67289 1010.     drift:  0.99D+02   Tbath :1000.
   1800    7.20    -17.66431   0.0293  955.  596.   -17.64329
   2000    8.00    -17.66514   0.0440  958.  896.   -17.62710
   2200    8.80    -17.66612   0.0410  965.  835.   -17.63587
   2400    9.60    -17.66689   0.0568  968. 1158.   -17.61849
   2600   10.40    -17.66752   0.0450  969.  918.   -17.62607
block <Epot> / <T> :     -17.67458  996.     drift:  0.99D+02   Tbath :1000.
   2800   11.20    -17.66786   0.0537  970. 1095.   -17.61743
   3000   12.00    -17.66844   0.0573  975. 1167.   -17.63072
   3200   12.80    -17.66886   0.0609  975. 1240.   -17.61828
   3400   13.60    -17.66913   0.0727  976. 1482.   -17.61369
block <Epot> / <T> :     -17.67422  998.     drift:  0.18D-03   Tbath :1000.
   3600   14.40    -17.66935   0.0535  977. 1089.   -17.62095
   3800   15.20    -17.66960   0.0463  978.  943.   -17.62677
   4000   16.00    -17.66972   0.0327  978.  667.   -17.62649
   4200   16.80    -17.66986   0.0544  979. 1109.   -17.61362
block <Epot> / <T> :     -17.67262  994.     drift:  0.12D-03   Tbath :1000.
   4400   17.60    -17.66991   0.0401  979.  817.   -17.62714
   4600   18.40    -17.66997   0.0559  980. 1139.   -17.62499
   4800   19.20    -17.67013   0.0674  983. 1373.   -17.61831
   5000   20.00    -17.67044   0.0510  985. 1040.   -17.63491
   5200   20.80    -17.67091   0.0608  987. 1239.   -17.63585
block <Epot> / <T> :     -17.67636 1022.     drift: -0.37D-03   Tbath :1000.
   5400   21.60    -17.67117   0.0589  986. 1201.   -17.62574
   5600   22.40    -17.67138   0.0583  987. 1188.   -17.62759
   5800   23.20    -17.67161   0.0354  987.  720.   -17.64259
   6000   24.00    -17.67174   0.0417  986.  850.   -17.63590
block <Epot> / <T> :     -17.67666  984.     drift: -0.11D-02   Tbath :1000.
   6200   24.80    -17.67184   0.0469  987.  956.   -17.61930
   6400   25.60    -17.67201   0.0495  988. 1008.   -17.61938
   6600   26.40    -17.67209   0.0446  987.  909.   -17.63467
   6800   27.20    -17.67212   0.0510  987. 1038.   -17.60595
   7000   28.00    -17.67209   0.0516  987. 1051.   -17.61602
block <Epot> / <T> :     -17.67412  990.     drift: -0.48D-03   Tbath :1000.
   7200   28.80    -17.67202   0.0541  987. 1102.   -17.62010
   7400   29.60    -17.67202   0.0587  987. 1197.   -17.61104
   7600   30.40    -17.67199   0.0675  987. 1376.   -17.61193
   7800   31.20    -17.67197   0.0538  988. 1097.   -17.62666
block <Epot> / <T> :     -17.67100  999.     drift:  0.19D-02   Tbath :1000.
   8000   32.00    -17.67200   0.0646  989. 1316.   -17.62140
   8200   32.80    -17.67204   0.0521  989. 1062.   -17.61309
   8400   33.60    -17.67205   0.0487  989.  992.   -17.61892
   8600   34.40    -17.67212   0.0557  990. 1135.   -17.64043
block <Epot> / <T> :     -17.67385 1006.     drift:  0.12D-02   Tbath :1000.
   8800   35.20    -17.67217   0.0336  990.  684.   -17.62152
   9000   36.00    -17.67219   0.0387  990.  788.   -17.63588
   9200   36.80    -17.67225   0.0522  990. 1063.   -17.61629
   9400   37.60    -17.67235   0.0481  991.  980.   -17.61869
   9600   38.40    -17.67245   0.0455  991.  926.   -17.62457
block <Epot> / <T> :     -17.67540 1004.     drift: -0.67D-03   Tbath :1000.
   9800   39.20    -17.67247   0.0531  991. 1081.   -17.61760
  10000   40.00    -17.67251   0.0394  991.  802.   -17.62140
  10200   40.80    -17.67251   0.0282  991.  574.   -17.64335
  10400   41.60    -17.67251   0.0377  991.  768.   -17.63370
block <Epot> / <T> :     -17.67293  987.     drift: -0.73D-03   Tbath :1000.
  10600   42.40    -17.67249   0.0297  991.  604.   -17.63272
  10800   43.20    -17.67248   0.0460  991.  936.   -17.61697
  11000   44.00    -17.67250   0.0348  992.  710.   -17.63847
  11200   44.80    -17.67254   0.0440  992.  896.   -17.63066
block <Epot> / <T> :     -17.67285 1000.     drift:  0.55D-03   Tbath :1000.
  11400   45.60    -17.67252   0.0435  991.  887.   -17.63379
  11600   46.40    -17.67251   0.0530  992. 1079.   -17.61526
  11800   47.20    -17.67247   0.0484  991.  986.   -17.63098
  12000   48.00    -17.67249   0.0575  992. 1171.   -17.62868
  12200   48.80    -17.67252   0.0529  992. 1079.   -17.62208
block <Epot> / <T> :     -17.67286 1009.     drift:  0.77D-03   Tbath :1000.
  12400   49.60    -17.67257   0.0372  993.  759.   -17.62847
 average properties 
 Epot               :  -17.6726012808188     
 Epot (accurate SCC):  -17.6736777278298     
 Ekin               :  4.873517800484704E-002
 Etot               :  -17.6238661028139     
 T                  :   992.860249345442     
 normal exit of md()
 
 number of start conformations from MD:         147
 
 optimization blocks            1
  q data taken from xtbrestart
  CAMM data taken from xtbrestart
ancopt converged in         10 cycles
energy :    -17.7227209
  q data taken from xtbrestart
  CAMM data taken from xtbrestart
ancopt converged in         10 cycles
energy :    -17.7205549
  q data taken from xtbrestart
  CAMM data taken from xtbrestart
ancopt converged in         14 cycles
energy :    -17.7224904
  q data taken from xtbrestart
  CAMM data taken from xtbrestart
ancopt converged in         10 cycles
energy :    -17.7227705
  q data taken from xtbrestart
  CAMM data taken from xtbrestart
ancopt converged in         13 cycles
energy :    -17.7228063
  q data taken from xtbrestart
  CAMM data taken from xtbrestart
ancopt converged in         21 cycles
energy :    -17.7226721
  q data taken from xtbrestart
  CAMM data taken from xtbrestart
ancopt converged in         27 cycles
energy :    -17.7227118
  q data taken from xtbrestart
  CAMM data taken from xtbrestart
ancopt converged in          9 cycles
energy :    -17.7228083
  q data taken from xtbrestart
  CAMM data taken from xtbrestart
ancopt converged in         16 cycles
energy :    -17.7197096
 optimization blocks           10
  q data taken from xtbrestart
  CAMM data taken from xtbrestart
ancopt converged in         14 cycles
energy :    -17.7197976
  q data taken from xtbrestart
  CAMM data taken from xtbrestart
ancopt converged in          9 cycles
energy :    -17.7221108
  q data taken from xtbrestart
  CAMM data taken from xtbrestart
ancopt converged in         13 cycles
energy :    -17.7214896
  q data taken from xtbrestart
  CAMM data taken from xtbrestart
ancopt converged in         13 cycles
energy :    -17.7186598
  q data taken from xtbrestart
  CAMM data taken from xtbrestart
ancopt converged in         13 cycles
energy :    -17.7220862
  q data taken from xtbrestart
  CAMM data taken from xtbrestart
ancopt converged in         13 cycles
energy :    -17.7219328
  q data taken from xtbrestart
  CAMM data taken from xtbrestart
ancopt converged in          8 cycles
energy :    -17.7218507
  q data taken from xtbrestart
  CAMM data taken from xtbrestart
ancopt converged in         12 cycles
energy :    -17.7217184
  q data taken from xtbrestart
  CAMM data taken from xtbrestart
ancopt converged in          9 cycles
energy :    -17.7214510
  q data taken from xtbrestart
  CAMM data taken from xtbrestart
ancopt converged in         10 cycles
energy :    -17.7212661
 optimization blocks           20
  q data taken from xtbrestart
  CAMM data taken from xtbrestart
ancopt converged in         10 cycles
energy :    -17.7220843
  q data taken from xtbrestart
  CAMM data taken from xtbrestart
ancopt converged in         11 cycles
energy :    -17.7214876
  q data taken from xtbrestart
  CAMM data taken from xtbrestart
ancopt converged in         12 cycles
energy :    -17.7214401
  q data taken from xtbrestart
  CAMM data taken from xtbrestart
ancopt converged in         11 cycles
energy :    -17.7214830
  q data taken from xtbrestart
  CAMM data taken from xtbrestart
ancopt converged in         11 cycles
energy :    -17.7213846
  q data taken from xtbrestart
  CAMM data taken from xtbrestart
ancopt converged in          8 cycles
energy :    -17.7220529
  q data taken from xtbrestart
  CAMM data taken from xtbrestart
ancopt converged in         17 cycles
energy :    -17.7218673
  q data taken from xtbrestart
  CAMM data taken from xtbrestart
ancopt converged in         16 cycles
energy :    -17.7218913
  q data taken from xtbrestart
  CAMM data taken from xtbrestart
ancopt converged in         10 cycles
energy :    -17.7220281
  q data taken from xtbrestart
  CAMM data taken from xtbrestart
ancopt converged in         16 cycles
energy :    -17.7219833
 optimization blocks           30
  q data taken from xtbrestart
  CAMM data taken from xtbrestart
ancopt converged in          9 cycles
energy :    -17.7221147
  q data taken from xtbrestart
  CAMM data taken from xtbrestart
ancopt converged in         10 cycles
energy :    -17.7220936
  q data taken from xtbrestart
  CAMM data taken from xtbrestart
ancopt converged in         12 cycles
energy :    -17.7219375
  q data taken from xtbrestart
  CAMM data taken from xtbrestart
ancopt converged in         15 cycles
energy :    -17.7221179
  q data taken from xtbrestart
  CAMM data taken from xtbrestart
ancopt converged in          9 cycles
energy :    -17.7220233
  q data taken from xtbrestart
  CAMM data taken from xtbrestart
ancopt converged in          8 cycles
energy :    -17.7221085
  q data taken from xtbrestart
  CAMM data taken from xtbrestart
ancopt converged in          9 cycles
energy :    -17.7219797
  q data taken from xtbrestart
  CAMM data taken from xtbrestart
ancopt converged in         14 cycles
energy :    -17.7220877
  q data taken from xtbrestart
  CAMM data taken from xtbrestart
ancopt converged in          9 cycles
energy :    -17.7220941
  q data taken from xtbrestart
  CAMM data taken from xtbrestart
ancopt converged in         11 cycles
energy :    -17.7219338
 optimization blocks           40
  q data taken from xtbrestart
  CAMM data taken from xtbrestart
ancopt converged in         13 cycles
energy :    -17.7220927
  q data taken from xtbrestart
  CAMM data taken from xtbrestart
ancopt converged in         12 cycles
energy :    -17.7220074
  q data taken from xtbrestart
  CAMM data taken from xtbrestart
ancopt converged in         10 cycles
energy :    -17.7220718
  q data taken from xtbrestart
  CAMM data taken from xtbrestart
ancopt converged in         19 cycles
energy :    -17.7220767
  q data taken from xtbrestart
  CAMM data taken from xtbrestart
ancopt converged in         10 cycles
energy :    -17.7219870
  q data taken from xtbrestart
  CAMM data taken from xtbrestart
ancopt converged in         11 cycles
energy :    -17.7197597
  q data taken from xtbrestart
  CAMM data taken from xtbrestart
ancopt converged in         10 cycles
energy :    -17.7219726
  q data taken from xtbrestart
  CAMM data taken from xtbrestart
ancopt converged in          9 cycles
energy :    -17.7219362
  q data taken from xtbrestart
  CAMM data taken from xtbrestart
ancopt converged in         12 cycles
energy :    -17.7219725
  q data taken from xtbrestart
  CAMM data taken from xtbrestart
ancopt converged in         15 cycles
energy :    -17.7220753
 optimization blocks           50
  q data taken from xtbrestart
  CAMM data taken from xtbrestart
ancopt converged in         12 cycles
energy :    -17.7219340
  q data taken from xtbrestart
  CAMM data taken from xtbrestart
ancopt converged in         21 cycles
energy :    -17.7217814
  q data taken from xtbrestart
  CAMM data taken from xtbrestart
ancopt converged in         18 cycles
energy :    -17.7227486
  q data taken from xtbrestart
  CAMM data taken from xtbrestart
ancopt converged in         10 cycles
energy :    -17.7229501
  q data taken from xtbrestart
  CAMM data taken from xtbrestart
ancopt converged in         18 cycles
energy :    -17.7203591
  q data taken from xtbrestart
  CAMM data taken from xtbrestart
ancopt converged in         11 cycles
energy :    -17.7187811
  q data taken from xtbrestart
  CAMM data taken from xtbrestart
ancopt converged in         24 cycles
energy :    -17.7214715
  q data taken from xtbrestart
  CAMM data taken from xtbrestart
ancopt converged in         10 cycles
energy :    -17.7205559
  q data taken from xtbrestart
  CAMM data taken from xtbrestart
ancopt converged in         23 cycles
energy :    -17.7217868
  q data taken from xtbrestart
  CAMM data taken from xtbrestart
ancopt converged in         16 cycles
energy :    -17.7219233
 optimization blocks           60
  q data taken from xtbrestart
  CAMM data taken from xtbrestart
ancopt converged in         13 cycles
energy :    -17.7219091
  q data taken from xtbrestart
  CAMM data taken from xtbrestart
ancopt converged in         17 cycles
energy :    -17.7226467
  q data taken from xtbrestart
  CAMM data taken from xtbrestart
ancopt converged in         12 cycles
energy :    -17.7227260
  q data taken from xtbrestart
  CAMM data taken from xtbrestart
ancopt converged in         19 cycles
energy :    -17.7219956
  q data taken from xtbrestart
  CAMM data taken from xtbrestart
ancopt converged in         22 cycles
energy :    -17.7219031
  q data taken from xtbrestart
  CAMM data taken from xtbrestart
ancopt converged in         15 cycles
energy :    -17.7214787
  q data taken from xtbrestart
  CAMM data taken from xtbrestart
ancopt converged in         18 cycles
energy :    -17.7229757
  q data taken from xtbrestart
  CAMM data taken from xtbrestart
ancopt converged in         11 cycles
energy :    -17.7224786
  q data taken from xtbrestart
  CAMM data taken from xtbrestart
ancopt converged in         14 cycles
energy :    -17.7223301
  q data taken from xtbrestart
  CAMM data taken from xtbrestart
ancopt converged in         18 cycles
energy :    -17.7223689
 optimization blocks           70
  q data taken from xtbrestart
  CAMM data taken from xtbrestart
ancopt converged in         14 cycles
energy :    -17.7224574
  q data taken from xtbrestart
  CAMM data taken from xtbrestart
ancopt converged in         14 cycles
energy :    -17.7229329
  q data taken from xtbrestart
  CAMM data taken from xtbrestart
ancopt converged in         12 cycles
energy :    -17.7224345
  q data taken from xtbrestart
  CAMM data taken from xtbrestart
ancopt converged in         10 cycles
energy :    -17.7224725
  q data taken from xtbrestart
  CAMM data taken from xtbrestart
ancopt converged in         11 cycles
energy :    -17.7228204
  q data taken from xtbrestart
  CAMM data taken from xtbrestart
ancopt converged in         20 cycles
energy :    -17.7204103
  q data taken from xtbrestart
  CAMM data taken from xtbrestart
ancopt converged in         12 cycles
energy :    -17.7229726
  q data taken from xtbrestart
  CAMM data taken from xtbrestart
ancopt converged in         23 cycles
energy :    -17.7229791
  q data taken from xtbrestart
  CAMM data taken from xtbrestart
ancopt converged in         12 cycles
energy :    -17.7203399
  q data taken from xtbrestart
  CAMM data taken from xtbrestart
ancopt converged in         15 cycles
energy :    -17.7226186
 optimization blocks           80
  q data taken from xtbrestart
  CAMM data taken from xtbrestart
ancopt converged in         24 cycles
energy :    -17.7228869
  q data taken from xtbrestart
  CAMM data taken from xtbrestart
ancopt converged in          8 cycles
energy :    -17.7229491
  q data taken from xtbrestart
  CAMM data taken from xtbrestart
ancopt converged in         10 cycles
energy :    -17.7224933
  q data taken from xtbrestart
  CAMM data taken from xtbrestart
ancopt converged in         26 cycles
energy :    -17.7229929
  q data taken from xtbrestart
  CAMM data taken from xtbrestart
ancopt converged in         17 cycles
energy :    -17.7229286
  q data taken from xtbrestart
  CAMM data taken from xtbrestart
ancopt converged in         16 cycles
energy :    -17.7215053
  q data taken from xtbrestart
  CAMM data taken from xtbrestart
ancopt converged in         15 cycles
energy :    -17.7224671
  q data taken from xtbrestart
  CAMM data taken from xtbrestart
ancopt converged in         22 cycles
energy :    -17.7228013
  q data taken from xtbrestart
  CAMM data taken from xtbrestart
ancopt converged in         17 cycles
energy :    -17.7227392
  q data taken from xtbrestart
  CAMM data taken from xtbrestart
ancopt converged in         16 cycles
energy :    -17.7219193
 optimization blocks           90
  q data taken from xtbrestart
  CAMM data taken from xtbrestart
ancopt converged in         10 cycles
energy :    -17.7219357
  q data taken from xtbrestart
  CAMM data taken from xtbrestart
ancopt converged in         16 cycles
energy :    -17.7198283
  q data taken from xtbrestart
  CAMM data taken from xtbrestart
ancopt converged in         14 cycles
energy :    -17.7229445
  q data taken from xtbrestart
  CAMM data taken from xtbrestart
ancopt converged in         17 cycles
energy :    -17.7193135
  q data taken from xtbrestart
  CAMM data taken from xtbrestart
ancopt converged in         18 cycles
energy :    -17.7188136
  q data taken from xtbrestart
  CAMM data taken from xtbrestart
ancopt converged in         16 cycles
energy :    -17.7223237
  q data taken from xtbrestart
  CAMM data taken from xtbrestart
ancopt converged in         10 cycles
energy :    -17.7215040
  q data taken from xtbrestart
  CAMM data taken from xtbrestart
ancopt converged in         16 cycles
energy :    -17.7220179
  q data taken from xtbrestart
  CAMM data taken from xtbrestart
ancopt converged in         28 cycles
energy :    -17.7193463
  q data taken from xtbrestart
  CAMM data taken from xtbrestart
ancopt converged in         13 cycles
energy :    -17.7190722
 optimization blocks          100
  q data taken from xtbrestart
  CAMM data taken from xtbrestart
ancopt converged in          8 cycles
energy :    -17.7213854
  q data taken from xtbrestart
  CAMM data taken from xtbrestart
ancopt converged in         11 cycles
energy :    -17.7214321
  q data taken from xtbrestart
  CAMM data taken from xtbrestart
ancopt converged in         15 cycles
energy :    -17.7220702
  q data taken from xtbrestart
  CAMM data taken from xtbrestart
ancopt converged in         12 cycles
energy :    -17.7220206
  q data taken from xtbrestart
  CAMM data taken from xtbrestart
ancopt converged in         13 cycles
energy :    -17.7224369
  q data taken from xtbrestart
  CAMM data taken from xtbrestart
ancopt converged in         12 cycles
energy :    -17.7227761
  q data taken from xtbrestart
  CAMM data taken from xtbrestart
ancopt converged in         22 cycles
energy :    -17.7193543
  q data taken from xtbrestart
  CAMM data taken from xtbrestart
ancopt converged in         19 cycles
energy :    -17.7184450
  q data taken from xtbrestart
  CAMM data taken from xtbrestart
ancopt converged in         19 cycles
energy :    -17.7192698
  q data taken from xtbrestart
  CAMM data taken from xtbrestart
ancopt converged in         18 cycles
energy :    -17.7186640
 optimization blocks          110
  q data taken from xtbrestart
  CAMM data taken from xtbrestart
ancopt converged in         24 cycles
energy :    -17.7229408
  q data taken from xtbrestart
  CAMM data taken from xtbrestart
ancopt converged in         23 cycles
energy :    -17.7219849
  q data taken from xtbrestart
  CAMM data taken from xtbrestart
ancopt converged in         17 cycles
energy :    -17.7227008
  q data taken from xtbrestart
  CAMM data taken from xtbrestart
ancopt converged in         13 cycles
energy :    -17.7192629
  q data taken from xtbrestart
  CAMM data taken from xtbrestart
ancopt converged in         16 cycles
energy :    -17.7224750
  q data taken from xtbrestart
  CAMM data taken from xtbrestart
ancopt converged in         15 cycles
energy :    -17.7229540
  q data taken from xtbrestart
  CAMM data taken from xtbrestart
ancopt converged in         14 cycles
energy :    -17.7229341
  q data taken from xtbrestart
  CAMM data taken from xtbrestart
ancopt converged in         15 cycles
energy :    -17.7197458
  q data taken from xtbrestart
  CAMM data taken from xtbrestart
ancopt converged in         18 cycles
energy :    -17.7218466
  q data taken from xtbrestart
  CAMM data taken from xtbrestart
ancopt converged in         24 cycles
energy :    -17.7204221
 optimization blocks          120
  q data taken from xtbrestart
  CAMM data taken from xtbrestart
ancopt converged in         18 cycles
energy :    -17.7193234
  q data taken from xtbrestart
  CAMM data taken from xtbrestart
ancopt converged in         24 cycles
energy :    -17.7192940
  q data taken from xtbrestart
  CAMM data taken from xtbrestart
ancopt converged in         26 cycles
energy :    -17.7228123
  q data taken from xtbrestart
  CAMM data taken from xtbrestart
ancopt converged in         12 cycles
energy :    -17.7227952
  q data taken from xtbrestart
  CAMM data taken from xtbrestart
ancopt converged in         16 cycles
energy :    -17.7229742
  q data taken from xtbrestart
  CAMM data taken from xtbrestart
ancopt converged in         22 cycles
energy :    -17.7217752
  q data taken from xtbrestart
  CAMM data taken from xtbrestart
ancopt converged in         20 cycles
energy :    -17.7187481
  q data taken from xtbrestart
  CAMM data taken from xtbrestart
ancopt converged in         10 cycles
energy :    -17.7213117
  q data taken from xtbrestart
  CAMM data taken from xtbrestart
ancopt converged in         21 cycles
energy :    -17.7228446
  q data taken from xtbrestart
  CAMM data taken from xtbrestart
ancopt converged in         21 cycles
energy :    -17.7221123
 optimization blocks          130
  q data taken from xtbrestart
  CAMM data taken from xtbrestart
ancopt converged in         22 cycles
energy :    -17.7219514
  q data taken from xtbrestart
  CAMM data taken from xtbrestart
ancopt converged in         20 cycles
energy :    -17.7228668
  q data taken from xtbrestart
  CAMM data taken from xtbrestart
ancopt converged in          9 cycles
energy :    -17.7229704
  q data taken from xtbrestart
  CAMM data taken from xtbrestart
ancopt converged in         12 cycles
energy :    -17.7229781
  q data taken from xtbrestart
  CAMM data taken from xtbrestart
ancopt converged in         16 cycles
energy :    -17.7228915
  q data taken from xtbrestart
  CAMM data taken from xtbrestart
ancopt converged in         19 cycles
energy :    -17.7221260
  q data taken from xtbrestart
  CAMM data taken from xtbrestart
ancopt converged in         18 cycles
energy :    -17.7226946
  q data taken from xtbrestart
  CAMM data taken from xtbrestart
ancopt converged in         20 cycles
energy :    -17.7216814
  q data taken from xtbrestart
  CAMM data taken from xtbrestart
ancopt converged in         13 cycles
energy :    -17.7229767
  q data taken from xtbrestart
  CAMM data taken from xtbrestart
ancopt converged in         11 cycles
energy :    -17.7204073
 optimization blocks          140
  q data taken from xtbrestart
  CAMM data taken from xtbrestart
ancopt converged in         17 cycles
energy :    -17.7205526
  q data taken from xtbrestart
  CAMM data taken from xtbrestart
ancopt converged in         20 cycles
energy :    -17.7212514
  q data taken from xtbrestart
  CAMM data taken from xtbrestart
ancopt converged in         19 cycles
energy :    -17.7173239
  q data taken from xtbrestart
  CAMM data taken from xtbrestart
ancopt converged in         13 cycles
energy :    -17.7189151
  q data taken from xtbrestart
  CAMM data taken from xtbrestart
ancopt converged in         20 cycles
energy :    -17.7208386
  q data taken from xtbrestart
  CAMM data taken from xtbrestart
ancopt converged in         24 cycles
energy :    -17.7195913
  q data taken from xtbrestart
  CAMM data taken from xtbrestart
ancopt converged in         19 cycles
energy :    -17.7219908
  q data taken from xtbrestart
  CAMM data taken from xtbrestart
ancopt converged in         17 cycles
energy :    -17.7227239
  q data taken from xtbrestart
  CAMM data taken from xtbrestart
ancopt converged in          8 cycles
energy :    -17.7228052
energy window  (kcal) :  40.000
highest (kcal)        :   3.530
remaining %/#         :  16.892    25
 optimization blocks            1
  q data taken from xtbrestart
  CAMM data taken from xtbrestart
ancopt converged in          6 cycles
energy :    -17.7230010
  q data taken from xtbrestart
  CAMM data taken from xtbrestart
ancopt converged in          7 cycles
energy :    -17.7228209
  q data taken from xtbrestart
  CAMM data taken from xtbrestart
ancopt converged in          7 cycles
energy :    -17.7230008
  q data taken from xtbrestart
  CAMM data taken from xtbrestart
ancopt converged in          9 cycles
energy :    -17.7228187
  q data taken from xtbrestart
  CAMM data taken from xtbrestart
ancopt converged in          5 cycles
energy :    -17.7225274
  q data taken from xtbrestart
  CAMM data taken from xtbrestart
ancopt converged in          4 cycles
energy :    -17.7221356
  q data taken from xtbrestart
  CAMM data taken from xtbrestart
ancopt converged in          5 cycles
energy :    -17.7221264
  q data taken from xtbrestart
  CAMM data taken from xtbrestart
ancopt converged in         11 cycles
energy :    -17.7221230
  q data taken from xtbrestart
  CAMM data taken from xtbrestart
ancopt converged in          5 cycles
energy :    -17.7218287
 optimization blocks           10
  q data taken from xtbrestart
  CAMM data taken from xtbrestart
ancopt converged in         11 cycles
energy :    -17.7220347
  q data taken from xtbrestart
  CAMM data taken from xtbrestart
ancopt converged in          6 cycles
energy :    -17.7215179
  q data taken from xtbrestart
  CAMM data taken from xtbrestart
ancopt converged in          6 cycles
energy :    -17.7215181
  q data taken from xtbrestart
  CAMM data taken from xtbrestart
ancopt converged in         12 cycles
energy :    -17.7215302
  q data taken from xtbrestart
  CAMM data taken from xtbrestart
ancopt converged in          6 cycles
energy :    -17.7209775
  q data taken from xtbrestart
  CAMM data taken from xtbrestart
ancopt converged in          3 cycles
energy :    -17.7205706
  q data taken from xtbrestart
  CAMM data taken from xtbrestart
ancopt converged in          7 cycles
energy :    -17.7204611
  q data taken from xtbrestart
  CAMM data taken from xtbrestart
ancopt converged in         17 cycles
energy :    -17.7209753
  q data taken from xtbrestart
  CAMM data taken from xtbrestart
ancopt converged in          8 cycles
energy :    -17.7198196
  q data taken from xtbrestart
  CAMM data taken from xtbrestart
ancopt converged in          8 cycles
energy :    -17.7193768
 optimization blocks           20
  q data taken from xtbrestart
  CAMM data taken from xtbrestart
ancopt converged in          6 cycles
energy :    -17.7193413
  q data taken from xtbrestart
  CAMM data taken from xtbrestart
ancopt converged in         11 cycles
energy :    -17.7193764
  q data taken from xtbrestart
  CAMM data taken from xtbrestart
ancopt converged in          7 cycles
energy :    -17.7190169
  q data taken from xtbrestart
  CAMM data taken from xtbrestart
ancopt converged in         11 cycles
energy :    -17.7188457
  q data taken from xtbrestart
  CAMM data taken from xtbrestart
ancopt converged in         12 cycles
energy :    -17.7188354
  q data taken from xtbrestart
  CAMM data taken from xtbrestart
ancopt converged in         26 cycles
energy :    -17.7198210
energy window  (kcal) :  20.000
highest (kcal)        :   2.607
remaining %/#         :  60.000    15
 optimization blocks            1
  q data taken from xtbrestart
  CAMM data taken from xtbrestart
ancopt converged in          1 cycles
energy :    -17.7230010
  q data taken from xtbrestart
  CAMM data taken from xtbrestart
ancopt converged in          1 cycles
energy :    -17.7228209
  q data taken from xtbrestart
  CAMM data taken from xtbrestart
ancopt converged in          1 cycles
energy :    -17.7225274
  q data taken from xtbrestart
  CAMM data taken from xtbrestart
ancopt converged in          1 cycles
energy :    -17.7221357
  q data taken from xtbrestart
  CAMM data taken from xtbrestart
ancopt converged in          2 cycles
energy :    -17.7221267
  q data taken from xtbrestart
  CAMM data taken from xtbrestart
ancopt converged in          1 cycles
energy :    -17.7218287
  q data taken from xtbrestart
  CAMM data taken from xtbrestart
ancopt converged in         10 cycles
energy :    -17.7215319
  q data taken from xtbrestart
  CAMM data taken from xtbrestart
ancopt converged in          4 cycles
energy :    -17.7209814
  q data taken from xtbrestart
  CAMM data taken from xtbrestart
ancopt converged in          6 cycles
energy :    -17.7205813
 optimization blocks           10
  q data taken from xtbrestart
  CAMM data taken from xtbrestart
ancopt converged in          2 cycles
energy :    -17.7204617
  q data taken from xtbrestart
  CAMM data taken from xtbrestart
ancopt converged in          4 cycles
energy :    -17.7198239
  q data taken from xtbrestart
  CAMM data taken from xtbrestart
ancopt converged in          1 cycles
energy :    -17.7193769
  q data taken from xtbrestart
  CAMM data taken from xtbrestart
ancopt converged in         31 cycles
energy :    -17.7225280
  q data taken from xtbrestart
  CAMM data taken from xtbrestart
ancopt converged in          1 cycles
energy :    -17.7190169
  q data taken from xtbrestart
  CAMM data taken from xtbrestart
ancopt converged in          1 cycles
energy :    -17.7188457
energy window  (kcal) :  20.000
highest (kcal)        :   2.607
remaining %/#         :  93.333    14
 
 ===================================================
 ============= ordered conformer list ==============
 ===================================================
 written to <scoord.nnn> and xtbsiman.log
   1 dE (kcal):   0.000  MD run nr.:  2
   2 dE (kcal):   0.113  MD run nr.:  1
   3 dE (kcal):   0.297  MD run nr.:  2
   4 dE (kcal):   0.543  MD run nr.:  1
   5 dE (kcal):   0.549  MD run nr.:  1
   6 dE (kcal):   0.736  MD run nr.:  2
   7 dE (kcal):   0.922  MD run nr.:  1
   8 dE (kcal):   1.267  MD run nr.:  3
   9 dE (kcal):   1.518  MD run nr.:  1
  10 dE (kcal):   1.593  MD run nr.:  2
  11 dE (kcal):   1.994  MD run nr.:  1
  12 dE (kcal):   2.274  MD run nr.:  2
  13 dE (kcal):   2.500  MD run nr.:  3
  14 dE (kcal):   2.607  MD run nr.:  1
dE of input structure w.r.t. lowest found (kcal):   1.518
 
speedup  1.80
cpu  time for all    6 m 22.6 s
wall time for all    3 m 32.5 s
