 Entering Gaussian System
 *********************************************
 Gaussian 98:
 frequency output generated by the xtb code
 *********************************************
                         Standard orientation:
 --------------------------------------------------------------------
  Center     Atomic     Atomic              Coordinates (Angstroms)
  Number     Number      Type              X           Y           Z
 --------------------------------------------------------------------
    1          6             0        0.033332   -0.000000   -0.000000
    2          8             0        1.176989   -0.000006   -0.000004
    3          8             0       -1.110321    0.000006    0.000004
 --------------------------------------------------------------------
     1 basis functions        1 primitive gaussians
     1 alpha electrons        1 beta electrons
 
 Harmonic frequencies (cm**-1), IR intensities (KM/Mole),
 Raman scattering activities (A**4/amu), Raman depolarization ratios,
 reduced masses (AMU), force constants (mDyne/A) and normal coordinates:
                      1                      2                      3
                        a                      a                      a 
 Frequencies --   600.5285               600.5294              1424.7662
 Red. masses --    13.0995                13.0995                15.9994
 Frc consts  --     0.0000                 0.0000                 0.0000
 IR Inten    --     0.9585                 0.9585                 0.0001
 Raman Activ --     0.0000                 0.0000                 0.0000
 Depolar     --     0.0000                 0.0000                 0.0000
 Atom AN      X      Y      Z        X      Y      Z        X      Y      Z
   1   6    -0.00  -0.00  -0.85     0.00   0.85  -0.00    -0.00   0.00   0.00
   2   8     0.00   0.00   0.37    -0.00  -0.37   0.00     0.71  -0.00  -0.00
   3   8     0.00   0.00   0.37    -0.00  -0.37   0.00    -0.71   0.00   0.00
                      4
                        a 
 Frequencies --  2593.1969
 Red. masses --    13.0995
 Frc consts  --     0.0000
 IR Inten    --     3.7420
 Raman Activ --     0.0000
 Depolar     --     0.0000
 Atom AN      X      Y      Z        X      Y      Z        X      Y      Z
   1   6     0.85  -0.00  -0.00
   2   8    -0.37   0.00   0.00
   3   8    -0.37   0.00   0.00
