 
        ______________________________________
       |                                      |
       |           ==================         |
       |                 x T B                |
       |           ==================         |
       |               S. Grimme              |
       |        Universitaet Bonn, MCTC       |
       |         2015-18, Version 5.8.1       |
       |      Sun May  6 11:39:08 CEST 2018   |
       |______________________________________|
 
        This code comes without any warranty
        for non-commercial, academia use only.
        Preliminary GFN2 test version.
        Test license to: Dow Chemical Company
        Cite GFN-xTB work as:
        S. Grimme, C. Bannwarth, P. Shushkov
        JCTC, 13 (2017) 1989-2009
        for GFN2:
        C. Bannwarth, S. Ehlert, S. Grimme
        to be published.
        sTDA-xTB:
        S. Grimme  &  C. Bannwarth, JCP 145 (2016) 054103
        in the mass-spec context additionally:
        V. Asgeirsson, C.Bauer, S. Grimme, Chem. Sci. 8 (2017) 4879
 
        with help from
        P. Shushkov, G. Brandenburg, S. Dohm, J. Pisarek,
        F. März, M. Checinski, S. Ehrlich, S. Spicher, 
        P. Pracht, E. Caldeweyher, S. Ehlert, and C. Bannwarth.
 
        usage        :
        xtb <coord_file> [options]
        where <coord_file> is a valid file of TM)
        (*coord, Bohr) or xmol (*xyz, Angstroem)
        format.

        options:
        -chrg <int>   : molecular charge
        -uhf  <int>   : # of unpaired electrons(=2*S)
        -nox          : skip second, extended part in sTDA-xTB
        -pop          : do population analysis
                      : (default for -nox)
        -mowr <real>  : cut MO write above (def.3 Eh)
        -molden       : write formatted molden file
        -parx <file>  : read parameters for sTDA-xTB
                        calc (def:~/.param_stda2.xtb)
        -parv <file>  : read parameters for vTB part in
                        sTDA-xTB (def: ~/.param_stda1.xtb)
        -xtemp <real> : el. temp for xTB (def. 0 K)
        -etemp <real> : el. temp for GFN (def. 300 K)
        -fod          : calculate the FOD and write
                        molden.input file with
                        appropriate occupations
                        for plotting. Def. T=12500 K
 
        -gfn1         : use GFN-xTB
        -gfn2         : use GFN2-xTB
        -gfn2d3       : GFN2-xTB with D3 instead of D4
        -grad         : GFNn-xTB gradient
        -acc <real>   : GFNn-xTB accuracy (def. 1.0)
        -opt [level]  : optimize at GFNn-xTB
                      : level=crude,vloose,loose,
                      :       tight,vtight
        -hess         : compute Hessian at GFNn-xTB
        -ohess        : optimize and compute Hessian
        -omd          : optimize and do MD
        -siman        : conformational search
        -screen       : opt. loop over ensemble
        -gmd          : annealed MD for GMD procedure
        -modef        : vib mode following
        -gbsa [string1] [string2]
                        use GBSA implicit solvent
                        for solvent [string1] and
                        solvation state [string2]=
                        reference, bar1M (default=1M)
        additional GFN/opt/MD/siman options read from
        $XTBHOME/.xtbrc or $set in coordinate file
 
       spin and charge state information can be on:
       <.CHRG> (charge) and <.UHF> (=nalpha-nbeta)
       -uhf and -chrg override the file info.
       useful machine settings:
       setenv MKL_NUM_THREADS <NCORE_ON_YOUR_MACHINE>
       setenv OMP_STACKSIZE 500m
       limit stacksize unlimited
 
       total energies in Eh, gaps/HL energies in eV
       please read REVISION and HOWTO files carefully
          78  days left until this code expires
 =============================
  # OMP threads =           2
 =============================
 
 xtbhome directory:/home/ua25450/dftb/
 
 argument            1 :-ohess
 
 name of molecule           :
 comment line               :
 number of atoms            :    16
 number of electrons        :    32
 charge                     :  0
 spin                       : 0.0
 first test random number   :  0.5201
 
 
 -----------------------------------------
  G F N (Geometry, Frequency, Non-covalent)
        parametrization, gfnver=           3
     D4 dispersion model
 /home/ua25450/dftb/.param_gfn2.xtb
 -----------------------------------------
      method parameters     
 k(s)        :  1.8500
 k(p)        :  2.2300
 k(d)        :  2.2300
 k(f)        :  2.0000
 kEN (H0ij)  : -2.0000
 D3 a1       :  0.5200
 D3 a2       :  5.0000
 D3 s8       :  2.7000
 D3atm       :  5.0000
 alphaj      :  2.0000
 
     -------------------------
     ! NO SOLVENT MODEL USED !
     -------------------------
 
 doing EN charges ...
 sum q :  0.2220446D-15
 point charge moment (au)
     X       Y       Z   
   0.2063   0.0079  -0.0002  total (Debye):    0.525
 
            Z     q(EN)     CN     RAES       Cart. coordinates
     1  N   5.0   -0.19    3.16    1.95    -1.49113    -0.30109     0.00000
     2  H   1.0    0.11    1.04    1.43    -0.85843    -2.08175    -0.00173
     3  C   4.0   -0.06    4.11    3.83    -0.56515     1.00841     2.26814
     4  H   1.0    0.05    1.02    1.43    -1.23913     2.91478     2.26814
     5  H   1.0    0.05    1.02    1.43     1.45685     1.00838     2.26814
     6  C   4.0   -0.14    4.03    3.67    -1.53523    -0.36345     4.64429
     7  H   1.0    0.05    1.00    1.43    -0.99574     0.67805     6.29133
     8  H   1.0    0.05    1.00    1.43    -3.55083    -0.50386     4.56583
     9  H   1.0    0.05    1.00    1.43    -0.73313    -2.21773     4.72668
    10  C   4.0   -0.06    4.11    3.83    -0.56930     1.01134    -2.26814
    11  H   1.0    0.05    1.02    1.43    -1.24728     2.91629    -2.26690
    12  H   1.0    0.05    1.02    1.43     1.45270     1.01556    -2.26938
    13  C   4.0   -0.14    4.03    3.67    -1.53796    -0.36153    -4.64429
    14  H   1.0    0.05    1.00    1.43    -0.98477     0.67149    -6.29213
    15  H   1.0    0.05    1.00    1.43    -0.74740    -2.22114    -4.71763
    16  H   1.0    0.05    1.00    1.43    -3.55473    -0.48881    -4.57408
 
  Z AO/shell   Hii/eV     exponent
  1     Wed Apr 25 08:07:45 CEST 2018   EN: 2.200 GM2: 0.406  GM3: 0.0800  RAES: 1.40
     1s    -10.707211    1.230000
  6     Wed Apr 25 08:07:45 CEST 2018   EN: 2.550 GM2: 0.538  GM3: 0.1500  RAES: 3.00
     2s    -13.970922    2.096432
     2p    -10.063292    1.800000
  7     Wed Apr 25 08:07:45 CEST 2018   EN: 3.040 GM2: 0.461  GM3:-0.0640  RAES: 1.90
     2s    -16.686243    2.339881
     2p    -12.523956    2.014332
 
Molecule has the following symmetry elements: (sigma) 
It seems to be the Cs point group
cs  symmetry found (for desy threshold:  0.10E+00) used in thermo
 no old-style atom pair restraing (fixing) potential
 
             =======================================
             |                                     |
             |        S C C  calculation           |
             |                                     |
             =======================================
 #proc     :            2
 Ncao      :           31
 Nao       :           31
 Nel       :           32
 T(el)     :   300.0
 intcut    :    25.0
 scfconv   :  0.100E-05
   qconv   :  0.100E-03
 intneglect:  0.100E-07
 broydamp  :      0.400
 Nshell    :           21
 iter      E             dE          RMSdq      gap      omega  full diag
   1    -17.3243127 -0.173243E+02  0.287E+00   11.26       0.0  T
   2    -17.3417325 -0.174198E-01  0.151E+00   10.68       1.0  T
   3    -17.3421613 -0.428801E-03  0.544E-01   10.59       1.0  T
   4    -17.3423504 -0.189041E-03  0.945E-02   10.52       1.0  T
   5    -17.3423705 -0.201566E-04  0.483E-02   10.52       1.0  T
   6    -17.3423709 -0.337097E-06  0.632E-03   10.52       4.0  T
   7    -17.3423709 -0.541216E-07  0.119E-03   10.52      21.0  T
   8    -17.3423709 -0.178422E-08  0.230E-04   10.52     108.5  T
   9    -17.3423709 -0.207585E-10  0.948E-05   10.52     263.7  T
speedup  1.52
cpu  time for SCC    0.02 s
wall time for SCC    0.01 s

          eigenvalues
 #    :           4          5          6          7          8          9         10         11
 occ. :        2.000      2.000      2.000      2.000      2.000      2.000      2.000      2.000
 eps  :       -15.374    -15.270    -14.290    -14.020    -13.543    -13.390    -12.864    -12.400
 #    :          12         13         14         15         16         17         18         19
 occ. :        2.000      2.000      2.000      2.000      2.000      0.000      0.000      0.000
 eps  :       -12.327    -11.983    -11.885    -11.847     -9.497      1.025      2.670      2.676
 #    :          20         21         22         23         24         25         26         27
 occ. :        0.000      0.000      0.000      0.000      0.000      0.000      0.000      0.000
 eps  :         4.249      4.313      5.434      5.487      5.658      5.716      6.115      6.896
 

   #   Z            q   n(s)   n(p)   n(d)      C6AA      α(0)    relVol
   1   7 N     -0.277  1.353  3.924  0.000    27.535     7.797     1.034
   2   1 H      0.136  0.864  0.000  0.000     1.463     1.893     0.375
   3   6 C      0.015  1.038  2.946  0.000    20.441     6.457     0.523
   4   1 H      0.034  0.966  0.000  0.000     2.523     2.484     0.491
   5   1 H      0.008  0.992  0.000  0.000     2.917     2.671     0.528
   6   6 C     -0.115  1.032  3.083  0.000    22.895     6.843     0.554
   7   1 H      0.039  0.961  0.000  0.000     2.460     2.452     0.485
   8   1 H      0.051  0.949  0.000  0.000     2.300     2.371     0.469
   9   1 H      0.038  0.962  0.000  0.000     2.470     2.457     0.486
  10   6 C      0.015  1.038  2.946  0.000    20.441     6.457     0.523
  11   1 H      0.034  0.966  0.000  0.000     2.523     2.484     0.491
  12   1 H      0.008  0.992  0.000  0.000     2.918     2.671     0.528
  13   6 C     -0.115  1.032  3.083  0.000    22.895     6.843     0.554
  14   1 H      0.039  0.961  0.000  0.000     2.460     2.452     0.485
  15   1 H      0.038  0.962  0.000  0.000     2.469     2.457     0.486
  16   1 H      0.051  0.949  0.000  0.000     2.301     2.372     0.469

 Mol. C6AA /au*bohr^6 :       1673.759867
 Mol. C8AA /au*bohr^6 :      33852.559684
 Mol. a(0) /au        :         61.162546

 
 Wiberg/Mayer (AO) data. WBOs > 0.1 written file <wbo>
 largest (>0.05) Wiberg bond orders for each atom
           total WBO             WBO to atom ...
     1  N   3.038    C    3 1.007    C   10 1.007    H    2 0.960
     2  H   0.981    N    1 0.960
     3  C   3.989    C    6 1.013    N    1 1.007    H    4 0.978    H    5 0.974
     4  H   0.999    C    3 0.978
     5  H   1.000    C    3 0.974
     6  C   3.996    C    3 1.013    H    9 0.989    H    8 0.988    H    7 0.987
     7  H   0.998    C    6 0.987
     8  H   0.997    C    6 0.988
     9  H   0.999    C    6 0.989
    10  C   3.989    C   13 1.013    N    1 1.007    H   11 0.978    H   12 0.974
    11  H   0.999    C   10 0.978
    12  H   1.000    C   10 0.974
    13  C   3.996    C   10 1.013    H   15 0.989    H   16 0.988    H   14 0.987
    14  H   0.998    C   13 0.987
    15  H   0.999    C   13 0.989
    16  H   0.997    C   13 0.988
 
molecular dipole:
                 x           y           z       tot (Debye)
 q only:        0.077      -0.038      -0.000
   full:        0.458      -0.067      -0.001       1.164
molecular quadrupole (traceless):
                xx          xy          yy          xz          yz          zz
 q only:       -1.569       0.005       0.089       0.000      -0.000       1.480
  q+dip:       -1.842      -0.943       1.599       0.001       0.002       0.244
   full:       -2.541      -0.585       1.425       0.001       0.001       1.116
 SCC converged in            9  cycles
 
SCC energy    :     -17.3423709
rep           :       0.2616817
ES            :       0.0114769
AES           :       0.0052525
AXC           :       0.0140144
disp          :      -0.0076280
XB            :       0.0000000
fix           :       0.0000000
total E       :     -17.0806875
atomizationE  :       3.7301880     2340.73
(atE without considerung molecular charge,
 total energy contains solvation terms)
H-L gap (eV)  :         10.5217
 
             =======================================
             |                                     |
             |    Approximate Normal Coordinate    |
             |   Rational Function Optimization    |
             |                                     |
             =======================================
Ref. for RF algo: F.Eckert, P.Pulay, H.-J.Werner
                  J.Comput.Chem. 18 (1997) 1473.
ANC idea implemented by S. Grimme in the 2000ers (unpublished)
restraining potential by S. Ehrlich.
dumping coords to <xtbopt.coord> and <xtbopt.log
 optlevel               1
 Maxcycle             200
 Maxmicro              20
 Econv         1.000000000000000E-006
 Gconv         8.000000000000000E-004
 Maxdispl       1.00000000000000     
 Hlow          1.000000000000000E-002
 S6             20.0000000000000     
 Nvar               42

generating ANC from model Hessian ...
 Shifting diagonal of input Hessian by   5.904087115437930E-003
 Lowest  eigenvalues of input Hessian
   -0.000000   -0.000000   -0.000000    0.000000    0.000000    0.000000
    0.010000    0.010132    0.011415    0.018868    0.020512    0.025839
    0.026750    0.050375    0.054527    0.063193    0.063487    0.068536
 Highest eigenvalues
    1.226396    1.235209    1.258298    1.264334    1.418786    1.431303
 
cpu  time for ANC gen    0.02 s
wall time for ANC gen    0.01 s
................................................................................
.............................. CYCLE    1 ......................................
................................................................................
  q data taken from xtbrestart
  CAMM data taken from xtbrestart
   1    -17.3423709 -0.173424E+02  0.998E-06   10.52       0.0  T
   2    -17.3423709 -0.319744E-13  0.589E-06   10.52    4243.8  T
   3    -17.3423709  0.355271E-14  0.607E-07   10.52   41206.9  T
speedup  1.98
cpu  time for SCC    0.01 s
wall time for SCC    0.00 s
speedup  2.00
cpu  time for grad    0.00 s
wall time for grad    0.00 s
 E :    -17.08068746  G :  0.077910    pred/act E change:  0.000D+00  0.671D-12
Maxdispl :   0.0755   ||displ|| :   0.1573   Lambda : -0.665D-02
Largest |displ|/coords:  0.0755 (   6)  0.0554 (  12)  0.0546 (  28)
................................................................................
.............................. CYCLE    2 ......................................
................................................................................
   1    -17.3253877 -0.173254E+02  0.177E-01   10.52       0.0  T
   2    -17.3254678 -0.801287E-04  0.923E-02   10.54       1.0  T
   3    -17.3254703 -0.242889E-05  0.329E-02   10.55       1.0  T
   4    -17.3254706 -0.288206E-06  0.331E-03   10.55       7.6  T
   5    -17.3254706 -0.109874E-07  0.162E-03   10.55      15.4  T
speedup  2.00
cpu  time for SCC    0.01 s
wall time for SCC    0.00 s
speedup  2.00
cpu  time for grad    0.00 s
wall time for grad    0.00 s
 E :    -17.08497368  G :  0.028126    pred/act E change:  0.000D+00 -0.429D-02
Maxdispl :   0.0568   ||displ|| :   0.1126   Lambda : -0.138D-02
Largest |displ|/coords:  0.0568 (  15)  0.0536 (   3)  0.0463 (  12)
................................................................................
.............................. CYCLE    3 ......................................
................................................................................
   1    -17.3184116 -0.173184E+02  0.966E-02   10.61       0.0  T
   2    -17.3184394 -0.277648E-04  0.510E-02   10.62       1.0  T
   3    -17.3184402 -0.888366E-06  0.205E-02   10.62       1.2  T
   4    -17.3184404 -0.130213E-06  0.341E-03   10.62       7.3  T
   5    -17.3184404 -0.521236E-07  0.135E-03   10.62      18.6  T
speedup  2.00
cpu  time for SCC    0.01 s
wall time for SCC    0.00 s
speedup  2.00
cpu  time for grad    0.00 s
wall time for grad    0.00 s
 E :    -17.08572449  G :  0.005913    pred/act E change: -0.341D-02 -0.751D-03
Maxdispl :   0.0420   ||displ|| :   0.0486   Lambda : -0.964D-04
Largest |displ|/coords:  0.0420 (   3)  0.0130 (  12)  0.0119 (   1)
................................................................................
.............................. CYCLE    4 ......................................
................................................................................
   1    -17.3189097 -0.173189E+02  0.415E-02   10.65       0.0  T
   2    -17.3189109 -0.114463E-05  0.235E-02   10.65       1.1  T
   3    -17.3189110 -0.958246E-07  0.447E-03   10.65       5.6  T
   4    -17.3189110 -0.613232E-07  0.135E-03   10.65      18.5  T
   5    -17.3189110 -0.192165E-08  0.504E-04   10.65      49.6  T
speedup  2.00
cpu  time for SCC    0.01 s
wall time for SCC    0.00 s
speedup  2.00
cpu  time for grad    0.00 s
wall time for grad    0.00 s
 E :    -17.08579264  G :  0.003115    pred/act E change: -0.699D-03 -0.682D-04
Maxdispl :   0.0540   ||displ|| :   0.0571   Lambda : -0.468D-04
Largest |displ|/coords:  0.0540 (   3)  0.0113 (  12)  0.0072 (  28)
................................................................................
.............................. CYCLE    5 ......................................
................................................................................
   1    -17.3199619 -0.173200E+02  0.423E-02   10.67       0.0  T
   2    -17.3199624 -0.517697E-06  0.242E-02   10.67       1.0  T
   3    -17.3199625 -0.723639E-07  0.313E-03   10.67       8.0  T
   4    -17.3199625 -0.431693E-07  0.122E-03   10.67      20.5  T
   5    -17.3199625 -0.747917E-09  0.139E-04   10.67     180.3  T
   6    -17.3199625 -0.830624E-11  0.513E-05   10.67     487.2  T
speedup  2.00
cpu  time for SCC    0.01 s
wall time for SCC    0.00 s
speedup  2.00
cpu  time for grad    0.00 s
wall time for grad    0.00 s
 E :    -17.08582062  G :  0.001410    pred/act E change: -0.483D-04 -0.280D-04
Maxdispl :   0.0264   ||displ|| :   0.0277   Lambda : -0.737D-05
Largest |displ|/coords:  0.0264 (   3)  0.0050 (  12)  0.0043 (   1)
................................................................................
.............................. CYCLE    6 ......................................
................................................................................
   1    -17.3202940 -0.173203E+02  0.169E-02   10.68       0.0  T
   2    -17.3202940 -0.488066E-07  0.987E-03   10.68       2.5  T
   3    -17.3202940 -0.947500E-08  0.812E-04   10.68      30.8  T
   4    -17.3202940 -0.168599E-08  0.352E-04   10.68      71.1  T
speedup  2.00
cpu  time for SCC    0.01 s
wall time for SCC    0.00 s
speedup  2.00
cpu  time for grad    0.00 s
wall time for grad    0.00 s
 E :    -17.08582583  G :  0.000726    pred/act E change: -0.235D-04 -0.521D-05
Maxdispl :   0.0230   ||displ|| :   0.0268   Lambda : -0.409D-05
Largest |displ|/coords:  0.0230 (   3)  0.0116 (   1)  0.0043 (   5)
................................................................................
.............................. CYCLE    7 ......................................
................................................................................
   1    -17.3203746 -0.173204E+02  0.156E-02   10.68       0.0  T
   2    -17.3203747 -0.336738E-07  0.915E-03   10.68       2.7  T
   3    -17.3203747 -0.831612E-08  0.598E-04   10.68      41.8  T
   4    -17.3203747 -0.397460E-09  0.214E-04   10.68     116.8  T
speedup  2.00
cpu  time for SCC    0.01 s
wall time for SCC    0.00 s
speedup  2.00
cpu  time for grad    0.00 s
wall time for grad    0.00 s
 E :    -17.08582847  G :  0.000402    pred/act E change: -0.369D-05 -0.264D-05
Maxdispl :   0.0138   ||displ|| :   0.0186   Lambda : -0.152D-05
Largest |displ|/coords:  0.0138 (   1)  0.0113 (   3)  0.0040 (   5)
................................................................................
.............................. CYCLE    8 ......................................
................................................................................
   1    -17.3203164 -0.173203E+02  0.108E-02   10.67       0.0  T
   2    -17.3203164 -0.115379E-07  0.629E-03   10.67       4.0  T
   3    -17.3203164 -0.440522E-08  0.378E-04   10.67      66.1  T
   4    -17.3203164 -0.118156E-09  0.169E-04   10.67     148.0  T
speedup  2.00
cpu  time for SCC    0.01 s
wall time for SCC    0.00 s
speedup  2.00
cpu  time for grad    0.00 s
wall time for grad    0.00 s
 E :    -17.08582960  G :  0.000390    pred/act E change: -0.204D-05 -0.114D-05
Maxdispl :   0.0246   ||displ|| :   0.0282   Lambda : -0.177D-05
Largest |displ|/coords:  0.0246 (   1)  0.0113 (   3)  0.0066 (   5)
................................................................................
.............................. CYCLE    9 ......................................
................................................................................
   1    -17.3202054 -0.173202E+02  0.161E-02   10.67       0.0  T
   2    -17.3202054 -0.252341E-07  0.931E-03   10.67       2.7  T
   3    -17.3202054 -0.965911E-08  0.560E-04   10.67      44.6  T
   4    -17.3202054 -0.223864E-09  0.256E-04   10.67      97.5  T
speedup  2.00
cpu  time for SCC    0.01 s
wall time for SCC    0.00 s
speedup  2.00
cpu  time for grad    0.00 s
wall time for grad    0.00 s
 E :    -17.08583082  G :  0.000388    pred/act E change: -0.759D-06 -0.121D-05
Maxdispl :   0.0206   ||displ|| :   0.0218   Lambda : -0.100D-05
Largest |displ|/coords:  0.0206 (   1)  0.0051 (   5)  0.0039 (   3)
................................................................................
.............................. CYCLE   10 ......................................
................................................................................
   1    -17.3201552 -0.173202E+02  0.119E-02   10.67       0.0  T
   2    -17.3201552 -0.164604E-07  0.692E-03   10.67       3.6  T
   3    -17.3201552 -0.505628E-08  0.449E-04   10.67      55.6  T
   4    -17.3201552 -0.131788E-09  0.172E-04   10.67     145.1  T
speedup  2.00
cpu  time for SCC    0.01 s
wall time for SCC    0.00 s
speedup  2.00
cpu  time for grad    0.00 s
wall time for grad    0.00 s
 E :    -17.08583150  G :  0.000293    pred/act E change: -0.887D-06 -0.685D-06
Maxdispl :   0.0110   ||displ|| :   0.0114   Lambda : -0.429D-06
Largest |displ|/coords:  0.0110 (   1)  0.0024 (   5)  0.0014 (   3)
ancopt converged in         10 cycles
total energy gain (kcal):     -3.2279
================
 final structure:
================
    16
        -17.08583150
N          -0.77411806315320   -0.09602911090212   -0.00007675140150
H          -0.50550809972536   -1.07700096169204    0.00002041665405
C          -0.29276603803230    0.53442583434714    1.21325749399203
H          -0.67048390847543    1.56222967341191    1.21859081238646
H           0.81221391263768    0.58654781122594    1.24896095997081
C          -0.80961224131733   -0.20855998515527    2.43704247472673
H          -0.51473608420837    0.30959755995050    3.34583969782990
H          -1.89380396135988   -0.26928024027442    2.39938703506238
H          -0.40797721055824   -1.21956417091765    2.46806795912892
C          -0.29263061379894    0.53438422998039   -1.21341458740718
H          -0.66937937838439    1.56253565617667   -1.21816374910605
H           0.81238889486266    0.58546257785846   -1.24951073646318
C          -0.81066332593701   -0.20772473624994   -2.43719335911436
H          -0.51568466013912    0.31036403808310   -3.34597555496257
H          -0.40996986994140   -1.21909429510519   -2.46862795514374
H          -1.89487663246936   -0.26748517073747   -2.39911056615267
 
 Bond Distances (Angstroems)
 ---------------------------
N1-H2=1.0171         N1-C3=1.4496         N1-C10=1.4496        H2-N1=1.0171         C3-N1=1.4496         C3-H4=1.0950         
C3-H5=1.1068         C3-C6=1.5221         H4-C3=1.0950         H5-C3=1.1068         C6-C3=1.5221         C6-H7=1.0869         
C6-H8=1.0865         C6-H9=1.0883         H7-C6=1.0869         H8-C6=1.0865         H9-C6=1.0883         C10-N1=1.4496        
C10-H11=1.0950       C10-H12=1.1068       C10-C13=1.5221       H11-C10=1.0950       H12-C10=1.1068       C13-C10=1.5221       
C13-H14=1.0869       C13-H15=1.0883       C13-H16=1.0865       H14-C13=1.0869       H15-C13=1.0883       H16-C13=1.0865       
 C  H  Rav=1.0927 sigma=0.0077  Rmin=1.0865  Rmax=1.1068    10
 C  C  Rav=1.5221 sigma=0.0000  Rmin=1.5221  Rmax=1.5221     2
 N  H  Rav=1.0171 sigma=0.0000  Rmin=1.0171  Rmax=1.0171     1
 N  C  Rav=1.4496 sigma=0.0000  Rmin=1.4496  Rmax=1.4496     2
 
 selected bond angles (degree)
 --------------------
C3-N1-H2=109.37                C10-N1-H2=109.38               C10-N1-C3=113.65               H4-C3-N1=107.32                
H5-C3-N1=112.27                H5-C3-H4=107.46                C6-C3-N1=110.36                C6-C3-H4=109.70                
C6-C3-H5=109.64                H7-C6-C3=110.33                H8-C6-C3=109.77                H8-C6-H7=109.05                
H9-C6-C3=110.55                H9-C6-H7=108.60                H9-C6-H8=108.50                H11-C10-N1=107.32              
H12-C10-N1=112.27              H12-C10-H11=107.46             C13-C10-N1=110.36              C13-C10-H11=109.71             
C13-C10-H12=109.64             
 
 selected dihedral angles (degree)
 ---------------------------------
H4-C3-N1-H2=184.66            H4-C3-N1-C10= 62.12           H5-C3-N1-H2= 66.80            H5-C3-N1-C10=304.25           
C6-C3-N1-H2=304.16            C6-C3-N1-C10=181.62           H7-C6-C3-N1=184.51            H7-C6-C3-H4=302.56            
H7-C6-C3-H5= 60.34            H8-C6-C3-N1=304.71            H8-C6-C3-H4= 62.75            H8-C6-C3-H5=180.54            
H9-C6-C3-N1= 64.37            H9-C6-C3-H4=182.42            H9-C6-C3-H5=300.20            H11-C10-N1-H2=175.41          
H11-C10-N1-C3=297.95          H12-C10-N1-H2=293.27          H12-C10-N1-C3= 55.81          C13-C10-N1-H2= 55.91          
C13-C10-N1-C3=178.45          
 
             =======================================
             |                                     |
             |        S C C  calculation           |
             |                                     |
             =======================================
 #proc     :            2
 Ncao      :           31
 Nao       :           31
 Nel       :           32
 T(el)     :   300.0
 intcut    :    25.0
 scfconv   :  0.100E-05
   qconv   :  0.100E-03
 intneglect:  0.100E-07
 broydamp  :      0.400
 Nshell    :           21
 iter      E             dE          RMSdq      gap      omega  full diag
   1    -17.3201552 -0.173202E+02  0.258E-05   10.67       0.0  T
   2    -17.3201552 -0.410694E-11  0.108E-05   10.67    2318.9  T
   3    -17.3201552 -0.245137E-12  0.589E-06   10.67    4243.9  T
speedup  2.00
cpu  time for SCC    0.01 s
wall time for SCC    0.00 s

          eigenvalues
 #    :           4          5          6          7          8          9         10         11
 occ. :        2.000      2.000      2.000      2.000      2.000      2.000      2.000      2.000
 eps  :       -15.378    -15.261    -14.275    -14.066    -13.517    -13.461    -12.826    -12.369
 #    :          12         13         14         15         16         17         18         19
 occ. :        2.000      2.000      2.000      2.000      2.000      0.000      0.000      0.000
 eps  :       -12.336    -11.989    -11.909    -11.793     -9.494      1.179      2.754      3.243
 #    :          20         21         22         23         24         25         26         27
 occ. :        0.000      0.000      0.000      0.000      0.000      0.000      0.000      0.000
 eps  :         3.468      4.240      4.469      4.658      4.889      4.924      5.304      6.330
 

   #   Z            q   n(s)   n(p)   n(d)      C6AA      α(0)    relVol
   1   7 N     -0.264  1.336  3.928  0.000    27.199     7.749     1.028
   2   1 H      0.133  0.867  0.000  0.000     1.486     1.909     0.378
   3   6 C      0.023  1.042  2.934  0.000    20.327     6.444     0.522
   4   1 H      0.030  0.970  0.000  0.000     2.582     2.513     0.497
   5   1 H     -0.001  1.001  0.000  0.000     3.074     2.741     0.542
   6   6 C     -0.109  1.038  3.071  0.000    22.778     6.826     0.552
   7   1 H      0.038  0.962  0.000  0.000     2.473     2.459     0.487
   8   1 H      0.048  0.952  0.000  0.000     2.331     2.387     0.472
   9   1 H      0.035  0.965  0.000  0.000     2.507     2.476     0.490
  10   6 C      0.023  1.042  2.934  0.000    20.327     6.444     0.522
  11   1 H      0.030  0.970  0.000  0.000     2.582     2.513     0.497
  12   1 H     -0.001  1.001  0.000  0.000     3.074     2.741     0.542
  13   6 C     -0.109  1.038  3.071  0.000    22.778     6.826     0.552
  14   1 H      0.038  0.962  0.000  0.000     2.473     2.459     0.487
  15   1 H      0.035  0.965  0.000  0.000     2.507     2.476     0.490
  16   1 H      0.048  0.952  0.000  0.000     2.331     2.387     0.472

 Mol. C6AA /au*bohr^6 :       1682.521819
 Mol. C8AA /au*bohr^6 :      33940.022238
 Mol. a(0) /au        :         61.349787

 
 Wiberg/Mayer (AO) data. WBOs > 0.1 written file <wbo>
 largest (>0.05) Wiberg bond orders for each atom
           total WBO             WBO to atom ...
     1  N   3.063    C    3 1.015    C   10 1.015    H    2 0.956
     2  H   0.982    N    1 0.956
     3  C   3.989    C    6 1.017    N    1 1.015    H    4 0.974    H    5 0.966
     4  H   0.999    C    3 0.974
     5  H   1.000    C    3 0.966
     6  C   3.996    C    3 1.017    H    9 0.987    H    8 0.987    H    7 0.986
     7  H   0.998    C    6 0.986
     8  H   0.998    C    6 0.987
     9  H   0.999    C    6 0.987
    10  C   3.989    C   13 1.017    N    1 1.015    H   11 0.974    H   12 0.966
    11  H   0.999    C   10 0.974
    12  H   1.000    C   10 0.966
    13  C   3.996    C   10 1.017    H   15 0.987    H   16 0.987    H   14 0.986
    14  H   0.998    C   13 0.986
    15  H   0.999    C   13 0.987
    16  H   0.998    C   13 0.987
 
molecular dipole:
                 x           y           z       tot (Debye)
 q only:        0.012      -0.083       0.000
   full:        0.369      -0.135       0.000       0.998
molecular quadrupole (traceless):
                xx          xy          yy          xz          yz          zz
 q only:       -1.490       0.095       0.002       0.000      -0.001       1.487
  q+dip:       -1.662      -0.657       1.407      -0.000       0.000       0.255
   full:       -2.380      -0.308       1.274      -0.000      -0.000       1.106
 SCC converged in            3  cycles
 
SCC energy    :     -17.3201552
rep           :       0.2343206
ES            :       0.0104251
AES           :       0.0056698
AXC           :       0.0142489
disp          :      -0.0076599
XB            :       0.0000000
fix           :       0.0000000
total E       :     -17.0858315
atomizationE  :       3.7353321     2343.96
(atE without considerung molecular charge,
 total energy contains solvation terms)
H-L gap (eV)  :         10.6736
 !!!!!!!!!!!!!!!!!!!!!!!!!!!!!!!!!!!
 ! Note: the input coordinates are !
 ! NOT overwritten. The optimized  !
 ! ones are on file <xtbopt.coord> !
 ! (or on <xtbopt.xyz> if it was a !
 ! xyz file)                       !
 !!!!!!!!!!!!!!!!!!!!!!!!!!!!!!!!!!!
 
Molecule has the following symmetry elements: (sigma) 
It seems to be the Cs point group
cs  symmetry found (for desy threshold:  0.10E+00) used in thermo
  q data taken from xtbrestart
  CAMM data taken from xtbrestart
 
             =======================================
             |                                     |
             |         Numerical Hessian           |
             |                                     |
             =======================================
step length          :   0.00500
SCC accuracy         :   0.30000
Hessian scale factor :   1.00000
frozen atoms in %    :   0.00000    0
RMS gradient         :   0.00029
estimated CPU  time      0.01 min
estimated wall time      0.01 min
 
 writing file <hessian>.
 
 projected vibrational frequencies (cm-1)
eig.   :       -0.00    -0.00    -0.00    -0.00     0.00     0.00
eig.   :      100.48   108.14   184.87   225.34   229.58   412.13
eig.   :      422.80   810.37   832.39   852.79   923.66   981.99
eig.   :     1061.39  1091.12  1100.60  1157.83  1175.56  1199.70
eig.   :     1243.39  1275.53  1318.25  1354.85  1404.99  1409.43
eig.   :     1415.83  1492.12  1492.26  1496.58  1500.92  1502.24
eig.   :     1502.71  2776.40  2785.92  2941.63  2946.40  3025.28
eig.   :     3026.11  3041.39  3041.90  3049.78  3050.59  3341.10
 reduced masses (amu)
   1:  9.22   2: 10.25   3:  9.69   4: 10.14   5:  9.39   6:  7.35   7:  9.09   8:  5.35
   9:  8.92  10:  2.46  11:  2.51  12:  8.59  13:  9.65  14:  3.02  15:  1.94  16:  3.40
  17:  4.36  18:  6.09  19:  5.56  20:  6.20  21:  9.30  22:  7.96  23:  9.76  24:  6.88
  25:  3.09  26:  2.51  27:  3.43  28:  4.02  29:  3.31  30:  3.47  31:  3.61  32:  1.55
  33:  1.58  34:  1.68  35:  1.53  36:  1.74  37:  1.91  38:  1.73  39:  1.72  40:  1.67
  41:  1.64  42:  1.79  43:  1.78  44:  1.69  45:  1.68  46:  1.68  47:  1.69  48:  1.82
 IR intensities (amu)
   1:  0.19   2:  0.15   3:  0.09   4:  0.08   5:  0.19   6:  0.13   7:  0.23   8:  0.05
   9:  0.09  10:  0.04  11:  0.18  12:  0.01  13:  0.09  14:  0.49  15:  0.03  16:  0.37
  17:  0.17  18:  0.11  19:  0.11  20:  0.22  21:  0.12  22:  0.73  23:  0.76  24:  0.29
  25:  0.06  26:  0.16  27:  0.30  28:  0.03  29:  0.21  30:  0.04  31:  0.43  32:  0.03
  33:  0.02  34:  0.09  35:  0.08  36:  0.08  37:  0.14  38:  0.14  39:  0.61  40:  0.08
  41:  0.38  42:  0.01  43:  0.35  44:  0.24  45:  0.14  46:  0.03  47:  0.26  48:  0.11
 output can be read by thermo (or use thermo option).
 writing <g98.out> molden fake output.
 recommended (thermochemical) frequency scaling factor: 1.0
                    ==================
                    thermo calculation
                    ==================
Nvib :   42 Nimag : 0  symmetry :   cs  rot number :  1  scale factor : 1.00 sthr :  50.
omega=100.48     Gvib=    -1.027     Grot=    -0.850     Gused=    -1.017
omega=108.14     Gvib=    -0.985     Grot=    -0.828     Gused=    -0.978
omega=184.87     Gvib=    -0.679     Grot=    -0.669     Gused=    -0.679
omega=225.34     Gvib=    -0.571     Grot=    -0.610     Gused=    -0.571
omega=229.58     Gvib=    -0.561     Grot=    -0.605     Gused=    -0.561
 
   temp. (K)  partition function   enthalpy   heat capacity  entropy
                                   cal/mol     cal/K/mol   cal/K/mol   J/K/mol
 298.15  VIB   36.6                 2630.227     17.788     15.918
         ROT  0.100E+06              888.752      2.981     25.863
         INT  0.366E+07             3518.979     20.769     41.781
         TR   0.605E+27             1481.254      4.968     38.768
         TOT                        5000.2329    25.7370    80.5488   337.0151
                     Eh         kcal/mol          kJ/mol 
ZPVE            0.146501         91.9305         384.636    
H(0)-H(T)+PV    0.796838E-02     5.00023         20.9209    
H(T)            0.154469         96.9308         405.557    
T*S             0.382713E-01     24.0156         100.481    
G(T)            0.116198         72.9151         305.076    
    -16.96963387  <=== TOTAL FREE ENERGY in Eh incl. el.,ZPVE,RRHO,solv. parts
 
Eat (element increment corrected) /kcal :  1729.927
        -263.314  <=== HOF(298)/kcal, to be compared to exptl. data
 
 normal mode %tage of torsion character
   1:  0.00   2:  0.00   3:  0.00   4:  0.00   5:  0.00   6:  0.00   7:  0.33   8:  0.44
   9:  0.39  10:  0.86  11:  0.83  12:  0.08  13:  0.31  14:  0.89  15:  0.44  16:  0.52
  17:  0.12  18:  0.08  19:  0.16  20:  0.14  21:  0.05  22:  0.31  23:  0.06  24:  0.27
  25:  0.33  26:  0.21  27:  0.06  28:  0.13  29:  0.00  30:  0.00  31:  0.18  32:  0.91
  33:  0.85  34:  0.72  35:  0.87  36:  0.73  37:  0.55  38:  0.09  39:  0.09  40:  0.08
  41:  0.07  42:  0.04  43:  0.04  44:  0.02  45:  0.02  46:  0.03  47:  0.03  48:  0.03
 recommended # of modes for mode following           4
 
speedup  1.55
cpu  time for all    0.99 s
wall time for all    0.64 s
