 Entering Gaussian System
 *********************************************
 Gaussian 98:
 frequency output generated by the xtb code
 *********************************************
                         Standard orientation:
 --------------------------------------------------------------------
  Center     Atomic     Atomic              Coordinates (Angstroms)
  Number     Number      Type              X           Y           Z
 --------------------------------------------------------------------
    1          7             0       -0.774119   -0.096025   -0.000074
    2          1             0       -0.505514   -1.076998    0.000024
    3          6             0       -0.292759    0.534429    1.213258
    4          1             0       -0.670471    1.562235    1.218590
    5          1             0        0.812221    0.586546    1.248957
    6          6             0       -0.809605   -0.208551    2.437046
    7          1             0       -0.514723    0.309606    3.345841
    8          1             0       -1.893797   -0.269266    2.399394
    9          1             0       -0.407975   -1.219558    2.468071
   10          6             0       -0.292632    0.534384   -1.213414
   11          1             0       -0.669375    1.562537   -1.218164
   12          1             0        0.812388    0.585456   -1.249515
   13          6             0       -0.810673   -0.207725   -2.437190
   14          1             0       -0.515695    0.310361   -3.345974
   15          1             0       -0.409985   -1.219096   -2.468624
   16          1             0       -1.894886   -0.267479   -2.399103
 --------------------------------------------------------------------
     1 basis functions        1 primitive gaussians
     1 alpha electrons        1 beta electrons
 
 Harmonic frequencies (cm**-1), IR intensities (KM/Mole),
 Raman scattering activities (A**4/amu), Raman depolarization ratios,
 reduced masses (AMU), force constants (mDyne/A) and normal coordinates:
                      1                      2                      3
                        a                      a                      a 
 Frequencies --   100.4843               108.1386               184.8677
 Red. masses --     9.0923                 5.3500                 8.9244
 Frc consts  --     0.0000                 0.0000                 0.0000
 IR Inten    --     0.2297                 0.0526                 0.0888
 Raman Activ --     0.0000                 0.0000                 0.0000
 Depolar     --     0.0000                 0.0000                 0.0000
 Atom AN      X      Y      Z        X      Y      Z        X      Y      Z
   1   7    -0.55   0.34   0.00     0.00  -0.00   0.01     0.19   0.42  -0.00
   2   1    -0.30   0.05  -0.00     0.00   0.00  -0.07    -0.01   0.10   0.00
   3   6    -0.06   0.02  -0.02     0.33  -0.23  -0.00     0.11   0.15   0.12
   4   1     0.02   0.02   0.09     0.26  -0.01  -0.01     0.04   0.05   0.10
   5   1    -0.01  -0.04  -0.11     0.10  -0.25   0.01     0.03   0.03   0.09
   6   6     0.30  -0.16   0.02    -0.16   0.11   0.00    -0.16  -0.30  -0.26
   7   1     0.22  -0.12   0.00     0.08  -0.04   0.00    -0.13  -0.19   0.01
   8   1     0.08   0.00   0.13    -0.06   0.27   0.02    -0.04  -0.10  -0.17
   9   1     0.05  -0.07  -0.10    -0.27  -0.06  -0.02    -0.04  -0.09  -0.16
  10   6    -0.06   0.02   0.02    -0.33   0.23  -0.00     0.11   0.15  -0.12
  11   1     0.02   0.02  -0.09    -0.26   0.01  -0.01     0.04   0.05  -0.10
  12   1    -0.01  -0.04   0.11    -0.10   0.25   0.01     0.03   0.03  -0.09
  13   6     0.30  -0.16  -0.02     0.16  -0.11   0.00    -0.16  -0.30   0.26
  14   1     0.22  -0.12  -0.00    -0.08   0.04   0.00    -0.13  -0.19  -0.01
  15   1     0.05  -0.07   0.10     0.27   0.06  -0.02    -0.04  -0.09   0.16
  16   1     0.08   0.00  -0.13     0.06  -0.27   0.02    -0.04  -0.10   0.17
                      4                      5                      6
                        a                      a                      a 
 Frequencies --   225.3365               229.5809               412.1294
 Red. masses --     2.4560                 2.5088                 8.5933
 Frc consts  --     0.0000                 0.0000                 0.0000
 IR Inten    --     0.0378                 0.1817                 0.0076
 Raman Activ --     0.0000                 0.0000                 0.0000
 Depolar     --     0.0000                 0.0000                 0.0000
 Atom AN      X      Y      Z        X      Y      Z        X      Y      Z
   1   7     0.01  -0.00   0.03    -0.25   0.15   0.00     0.00   0.00   0.39
   2   1     0.00  -0.00  -0.03    -0.21   0.00  -0.00     0.00   0.00   0.19
   3   6     0.22  -0.13   0.00     0.11  -0.08  -0.02     0.23   0.34   0.12
   4   1     0.13  -0.01  -0.00     0.11   0.01   0.02     0.06   0.09   0.03
   5   1     0.07  -0.11   0.00     0.04  -0.11  -0.04     0.06   0.09   0.02
   6   6    -0.03   0.02  -0.01     0.02   0.02   0.01    -0.03  -0.05  -0.27
   7   1    -0.33   0.20  -0.01    -0.31   0.21  -0.01    -0.10  -0.17   0.04
   8   1     0.01  -0.25  -0.24     0.03  -0.28  -0.21    -0.01   0.00  -0.21
   9   1     0.22   0.10   0.23     0.27   0.12   0.23    -0.03  -0.03  -0.20
  10   6    -0.22   0.13   0.00     0.10  -0.08   0.02    -0.23  -0.34   0.12
  11   1    -0.14   0.01  -0.00     0.11   0.01  -0.02    -0.06  -0.09   0.03
  12   1    -0.07   0.12   0.00     0.03  -0.11   0.04    -0.06  -0.09   0.02
  13   6     0.03  -0.02  -0.01     0.02   0.02  -0.01     0.03   0.05  -0.27
  14   1     0.34  -0.21  -0.01    -0.30   0.21   0.01     0.10   0.17   0.04
  15   1    -0.23  -0.11   0.24     0.26   0.11  -0.22     0.03   0.03  -0.20
  16   1    -0.01   0.26  -0.24     0.03  -0.27   0.20     0.01  -0.00  -0.21
                      7                      8                      9
                        a                      a                      a 
 Frequencies --   422.7965               810.3662               832.3878
 Red. masses --     9.6478                 3.0181                 1.9446
 Frc consts  --     0.0000                 0.0000                 0.0000
 IR Inten    --     0.0860                 0.4941                 0.0304
 Raman Activ --     0.0000                 0.0000                 0.0000
 Depolar     --     0.0000                 0.0000                 0.0000
 Atom AN      X      Y      Z        X      Y      Z        X      Y      Z
   1   7     0.17   0.26  -0.00    -0.31  -0.14   0.00    -0.00   0.00  -0.01
   2   1    -0.01   0.05  -0.00     0.71   0.16   0.00     0.00   0.00   0.10
   3   6    -0.03  -0.04   0.35    -0.01   0.13   0.06    -0.15   0.11  -0.01
   4   1    -0.00  -0.01   0.15     0.23   0.11   0.02     0.31   0.15  -0.11
   5   1    -0.01  -0.02   0.16     0.01  -0.23  -0.05    -0.02  -0.33   0.11
   6   6    -0.05  -0.09   0.45    -0.01   0.00   0.07    -0.08   0.04  -0.00
   7   1     0.01   0.02   0.10    -0.02  -0.09   0.07     0.09  -0.07   0.01
   8   1    -0.02  -0.03   0.17     0.00  -0.08   0.02    -0.01  -0.22   0.22
   9   1    -0.00  -0.02   0.16     0.06   0.02  -0.10     0.21   0.09  -0.21
  10   6    -0.03  -0.04  -0.35    -0.01   0.13  -0.06     0.15  -0.11  -0.01
  11   1    -0.00  -0.01  -0.15     0.23   0.11  -0.02    -0.31  -0.15  -0.11
  12   1    -0.01  -0.02  -0.16     0.01  -0.23   0.05     0.02   0.33   0.11
  13   6    -0.05  -0.09  -0.45    -0.01   0.00  -0.07     0.08  -0.04  -0.00
  14   1     0.01   0.02  -0.10    -0.02  -0.09  -0.07    -0.09   0.07   0.01
  15   1    -0.00  -0.02  -0.16     0.06   0.02   0.10    -0.21  -0.09  -0.21
  16   1    -0.02  -0.03  -0.17     0.00  -0.08  -0.02     0.01   0.22   0.22
                     10                     11                     12
                        a                      a                      a 
 Frequencies --   852.7885               923.6576               981.9850
 Red. masses --     3.4029                 4.3602                 6.0932
 Frc consts  --     0.0000                 0.0000                 0.0000
 IR Inten    --     0.3715                 0.1687                 0.1137
 Raman Activ --     0.0000                 0.0000                 0.0000
 Depolar     --     0.0000                 0.0000                 0.0000
 Atom AN      X      Y      Z        X      Y      Z        X      Y      Z
   1   7    -0.28  -0.08  -0.00    -0.06  -0.31   0.00    -0.00  -0.00  -0.36
   2   1     0.19   0.04   0.00    -0.37  -0.17   0.00     0.00  -0.00  -0.15
   3   6     0.17   0.01   0.08     0.09   0.15   0.10     0.08   0.13  -0.08
   4   1    -0.19  -0.08   0.15     0.03   0.04  -0.18     0.03   0.03  -0.13
   5   1     0.03   0.23  -0.19     0.02   0.04   0.02     0.02   0.03  -0.13
   6   6     0.10  -0.05   0.10     0.00   0.11   0.20     0.00   0.02   0.36
   7   1    -0.15  -0.03   0.09    -0.13  -0.27   0.26    -0.18  -0.27   0.30
   8   1     0.02   0.21  -0.27     0.01  -0.08  -0.09     0.01  -0.03  -0.13
   9   1    -0.20  -0.10   0.16     0.06   0.04  -0.25    -0.03  -0.02  -0.13
  10   6     0.17   0.01  -0.08     0.09   0.15  -0.10    -0.08  -0.13  -0.08
  11   1    -0.19  -0.08  -0.15     0.03   0.04   0.18    -0.03  -0.03  -0.13
  12   1     0.03   0.23   0.19     0.02   0.04  -0.02    -0.02  -0.03  -0.13
  13   6     0.10  -0.05  -0.10     0.00   0.11  -0.20    -0.00  -0.02   0.36
  14   1    -0.15  -0.03  -0.09    -0.13  -0.27  -0.26     0.18   0.27   0.30
  15   1    -0.20  -0.10  -0.16     0.06   0.04   0.25     0.03   0.02  -0.13
  16   1     0.02   0.21   0.27     0.01  -0.08   0.09    -0.01   0.03  -0.13
                     13                     14                     15
                        a                      a                      a 
 Frequencies --  1061.3890              1091.1247              1100.6048
 Red. masses --     5.5591                 6.2027                 9.3039
 Frc consts  --     0.0000                 0.0000                 0.0000
 IR Inten    --     0.1123                 0.2163                 0.1209
 Raman Activ --     0.0000                 0.0000                 0.0000
 Depolar     --     0.0000                 0.0000                 0.0000
 Atom AN      X      Y      Z        X      Y      Z        X      Y      Z
   1   7    -0.00  -0.00   0.13    -0.00  -0.00  -0.12     0.11   0.15  -0.00
   2   1    -0.00  -0.00  -0.33     0.00  -0.00   0.12     0.02   0.04   0.00
   3   6     0.00  -0.29   0.17    -0.31  -0.08   0.19     0.10   0.15  -0.44
   4   1    -0.15  -0.13  -0.19     0.11   0.04   0.24     0.04   0.05  -0.18
   5   1    -0.01   0.08   0.18    -0.07  -0.21  -0.14     0.04   0.06  -0.20
   6   6     0.04   0.27  -0.11     0.24   0.14  -0.10    -0.15  -0.22   0.26
   7   1     0.00  -0.10   0.07    -0.10  -0.03   0.06    -0.03  -0.04   0.05
   8   1     0.02  -0.06  -0.06     0.06   0.14  -0.27    -0.04  -0.06   0.12
   9   1     0.11   0.10  -0.28    -0.06  -0.01  -0.05    -0.05  -0.06   0.12
  10   6    -0.00   0.29   0.17     0.31   0.08   0.19     0.10   0.15   0.44
  11   1     0.15   0.13  -0.19    -0.11  -0.04   0.24     0.04   0.05   0.18
  12   1     0.01  -0.08   0.18     0.07   0.21  -0.14     0.04   0.06   0.20
  13   6    -0.04  -0.26  -0.11    -0.24  -0.14  -0.10    -0.15  -0.22  -0.26
  14   1    -0.00   0.10   0.07     0.10   0.03   0.06    -0.03  -0.04  -0.05
  15   1    -0.11  -0.10  -0.28     0.06   0.01  -0.05    -0.05  -0.06  -0.12
  16   1    -0.02   0.06  -0.06    -0.06  -0.14  -0.27    -0.04  -0.06  -0.12
                     16                     17                     18
                        a                      a                      a 
 Frequencies --  1157.8347              1175.5556              1199.6994
 Red. masses --     7.9607                 9.7587                 6.8776
 Frc consts  --     0.0000                 0.0000                 0.0000
 IR Inten    --     0.7333                 0.7638                 0.2856
 Raman Activ --     0.0000                 0.0000                 0.0000
 Depolar     --     0.0000                 0.0000                 0.0000
 Atom AN      X      Y      Z        X      Y      Z        X      Y      Z
   1   7    -0.34  -0.23   0.00     0.00  -0.00   0.61    -0.07   0.33   0.00
   2   1    -0.01  -0.05   0.00    -0.00  -0.00   0.24     0.23   0.14   0.00
   3   6     0.35   0.16   0.13    -0.17  -0.18  -0.33     0.13  -0.34  -0.09
   4   1    -0.09  -0.02  -0.03     0.00  -0.02  -0.23    -0.19  -0.17  -0.02
   5   1     0.06   0.18   0.14    -0.02  -0.05  -0.17     0.02   0.15  -0.03
   6   6    -0.20  -0.08  -0.09     0.04  -0.03   0.09    -0.11   0.20   0.05
   7   1     0.14   0.10  -0.14    -0.06  -0.05   0.06     0.02  -0.12   0.09
   8   1    -0.05  -0.09   0.25     0.01   0.01  -0.09    -0.02  -0.14   0.05
   9   1     0.08   0.03   0.06    -0.05  -0.03  -0.01     0.11   0.09  -0.23
  10   6     0.35   0.16  -0.13     0.17   0.18  -0.33     0.13  -0.34   0.09
  11   1    -0.09  -0.02   0.03    -0.00   0.02  -0.23    -0.19  -0.16   0.01
  12   1     0.06   0.18  -0.14     0.02   0.05  -0.17     0.02   0.15   0.03
  13   6    -0.20  -0.08   0.09    -0.04   0.03   0.09    -0.11   0.20  -0.05
  14   1     0.14   0.10   0.14     0.06   0.05   0.06     0.02  -0.12  -0.09
  15   1     0.08   0.03  -0.06     0.05   0.03  -0.01     0.11   0.09   0.23
  16   1    -0.05  -0.09  -0.25    -0.01  -0.01  -0.09    -0.02  -0.14  -0.05
                     19                     20                     21
                        a                      a                      a 
 Frequencies --  1243.3924              1275.5324              1318.2534
 Red. masses --     3.0918                 2.5138                 3.4319
 Frc consts  --     0.0000                 0.0000                 0.0000
 IR Inten    --     0.0567                 0.1629                 0.3024
 Raman Activ --     0.0000                 0.0000                 0.0000
 Depolar     --     0.0000                 0.0000                 0.0000
 Atom AN      X      Y      Z        X      Y      Z        X      Y      Z
   1   7    -0.00  -0.00  -0.04     0.19  -0.18  -0.00     0.00  -0.00  -0.07
   2   1    -0.00  -0.00  -0.18    -0.14  -0.09  -0.00    -0.00  -0.00   0.30
   3   6    -0.10   0.14   0.07     0.01   0.04   0.03     0.03  -0.06  -0.30
   4   1     0.08   0.07  -0.39     0.04   0.02   0.44    -0.04  -0.03   0.27
   5   1    -0.03  -0.07   0.34     0.02  -0.00  -0.43    -0.00   0.01   0.49
   6   6     0.18  -0.16  -0.01    -0.14   0.07  -0.02     0.07   0.08   0.05
   7   1    -0.05   0.08  -0.04     0.04  -0.02  -0.01    -0.06  -0.09   0.10
   8   1     0.04   0.16  -0.13    -0.03  -0.09   0.11     0.02  -0.03  -0.03
   9   1    -0.12  -0.09   0.16     0.08   0.06  -0.07    -0.05  -0.01  -0.01
  10   6     0.10  -0.14   0.07     0.01   0.04  -0.03    -0.03   0.06  -0.30
  11   1    -0.08  -0.07  -0.39     0.04   0.02  -0.44     0.04   0.03   0.26
  12   1     0.03   0.07   0.34     0.02  -0.01   0.43     0.00  -0.01   0.50
  13   6    -0.18   0.16  -0.01    -0.14   0.07   0.02    -0.08  -0.08   0.05
  14   1     0.05  -0.08  -0.04     0.04  -0.02   0.01     0.06   0.09   0.10
  15   1     0.12   0.09   0.16     0.08   0.06   0.07     0.05   0.01  -0.01
  16   1    -0.04  -0.15  -0.13    -0.03  -0.09  -0.11    -0.02   0.03  -0.03
                     22                     23                     24
                        a                      a                      a 
 Frequencies --  1354.8535              1404.9934              1409.4268
 Red. masses --     4.0235                 3.3110                 3.4657
 Frc consts  --     0.0000                 0.0000                 0.0000
 IR Inten    --     0.0322                 0.2096                 0.0375
 Raman Activ --     0.0000                 0.0000                 0.0000
 Depolar     --     0.0000                 0.0000                 0.0000
 Atom AN      X      Y      Z        X      Y      Z        X      Y      Z
   1   7    -0.07  -0.11  -0.00    -0.00  -0.00   0.04     0.02   0.05   0.00
   2   1    -0.02  -0.03   0.00    -0.00  -0.00  -0.11     0.02   0.02  -0.00
   3   6     0.03   0.05  -0.33    -0.01   0.03  -0.08    -0.01  -0.03   0.12
   4   1    -0.03  -0.01   0.39     0.03   0.02   0.10    -0.01  -0.01  -0.14
   5   1    -0.01  -0.04   0.38    -0.00   0.02   0.06     0.00  -0.01  -0.12
   6   6     0.07   0.09  -0.01    -0.11  -0.13   0.26     0.10   0.12  -0.26
   7   1    -0.09  -0.12   0.12     0.21   0.24  -0.18    -0.20  -0.22   0.17
   8   1     0.01  -0.07   0.07    -0.01   0.13  -0.34     0.00  -0.12   0.34
   9   1    -0.08  -0.02   0.07     0.15   0.04  -0.29    -0.15  -0.04   0.28
  10   6     0.03   0.05   0.33     0.01  -0.03  -0.08    -0.01  -0.03  -0.12
  11   1    -0.03  -0.01  -0.39    -0.03  -0.02   0.10    -0.01  -0.01   0.14
  12   1    -0.01  -0.04  -0.38     0.00  -0.02   0.06     0.00  -0.01   0.12
  13   6     0.07   0.09   0.01     0.11   0.12   0.26     0.10   0.12   0.26
  14   1    -0.09  -0.12  -0.12    -0.21  -0.23  -0.18    -0.21  -0.22  -0.17
  15   1    -0.08  -0.02  -0.07    -0.15  -0.04  -0.29    -0.15  -0.04  -0.28
  16   1     0.01  -0.07  -0.07     0.01  -0.13  -0.34     0.00  -0.12  -0.34
                     25                     26                     27
                        a                      a                      a 
 Frequencies --  1415.8324              1492.1158              1492.2596
 Red. masses --     3.6077                 1.5474                 1.5776
 Frc consts  --     0.0000                 0.0000                 0.0000
 IR Inten    --     0.4301                 0.0282                 0.0236
 Raman Activ --     0.0000                 0.0000                 0.0000
 Depolar     --     0.0000                 0.0000                 0.0000
 Atom AN      X      Y      Z        X      Y      Z        X      Y      Z
   1   7     0.00  -0.00  -0.33     0.01   0.00  -0.00    -0.00  -0.00  -0.03
   2   1    -0.00   0.00   0.76    -0.00   0.00   0.01     0.00  -0.00   0.08
   3   6     0.07  -0.13   0.17    -0.02   0.01   0.00     0.02  -0.05   0.01
   4   1    -0.03  -0.05  -0.26    -0.00   0.01  -0.02     0.04   0.00   0.00
   5   1     0.01   0.09  -0.01    -0.01  -0.02   0.00     0.01   0.08  -0.00
   6   6    -0.04  -0.01   0.02    -0.11   0.09  -0.03     0.12  -0.10   0.03
   7   1     0.09   0.01  -0.04     0.38  -0.27   0.03    -0.44   0.31  -0.03
   8   1    -0.00   0.04  -0.08     0.01  -0.12  -0.26    -0.01   0.15   0.30
   9   1     0.08   0.03  -0.03     0.06   0.04   0.31    -0.06  -0.04  -0.36
  10   6    -0.07   0.13   0.17    -0.03   0.02  -0.00    -0.02   0.05   0.01
  11   1     0.03   0.05  -0.26    -0.01   0.01   0.02    -0.04  -0.01   0.00
  12   1    -0.01  -0.09  -0.01    -0.01  -0.03  -0.00    -0.00  -0.07  -0.00
  13   6     0.04   0.01   0.02    -0.13   0.10   0.03    -0.10   0.09   0.02
  14   1    -0.09  -0.01  -0.04     0.44  -0.31  -0.03     0.38  -0.26  -0.03
  15   1    -0.08  -0.03  -0.03     0.07   0.05  -0.37     0.05   0.04  -0.31
  16   1     0.00  -0.04  -0.08     0.01  -0.15   0.30     0.01  -0.13   0.25
                     28                     29                     30
                        a                      a                      a 
 Frequencies --  1496.5817              1500.9180              1502.2427
 Red. masses --     1.6840                 1.5270                 1.7369
 Frc consts  --     0.0000                 0.0000                 0.0000
 IR Inten    --     0.0933                 0.0825                 0.0835
 Raman Activ --     0.0000                 0.0000                 0.0000
 Depolar     --     0.0000                 0.0000                 0.0000
 Atom AN      X      Y      Z        X      Y      Z        X      Y      Z
   1   7    -0.00  -0.00   0.02     0.02   0.02   0.00     0.00   0.00   0.03
   2   1     0.00  -0.00   0.03     0.01   0.01  -0.00    -0.00  -0.00  -0.06
   3   6     0.09   0.13  -0.02     0.04   0.05  -0.03    -0.07  -0.09  -0.04
   4   1    -0.39  -0.14  -0.01    -0.21  -0.08   0.00     0.22   0.08   0.04
   5   1     0.01  -0.41  -0.00     0.00  -0.23  -0.00    -0.01   0.22   0.03
   6   6    -0.03  -0.07  -0.02    -0.06  -0.10  -0.06    -0.07  -0.09  -0.07
   7   1    -0.08  -0.04   0.04    -0.08  -0.14   0.10    -0.06  -0.17   0.10
   8   1    -0.02   0.25   0.05    -0.03   0.41   0.07    -0.03   0.37   0.06
   9   1     0.21   0.08   0.01     0.38   0.15   0.09     0.36   0.14   0.13
  10   6    -0.09  -0.13  -0.02     0.04   0.06   0.03     0.07   0.09  -0.04
  11   1     0.39   0.14  -0.01    -0.21  -0.08  -0.00    -0.22  -0.08   0.04
  12   1    -0.01   0.42  -0.00     0.00  -0.23   0.00     0.01  -0.23   0.03
  13   6     0.03   0.07  -0.02    -0.06  -0.10   0.06     0.07   0.09  -0.08
  14   1     0.08   0.04   0.04    -0.08  -0.14  -0.09     0.06   0.17   0.10
  15   1    -0.21  -0.08   0.01     0.37   0.15  -0.09    -0.36  -0.14   0.14
  16   1     0.02  -0.25   0.05    -0.03   0.40  -0.07     0.03  -0.38   0.07
                     31                     32                     33
                        a                      a                      a 
 Frequencies --  1502.7143              2776.3974              2785.9172
 Red. masses --     1.9054                 1.7350                 1.7210
 Frc consts  --     0.0000                 0.0000                 0.0000
 IR Inten    --     0.1370                 0.1418                 0.6073
 Raman Activ --     0.0000                 0.0000                 0.0000
 Depolar     --     0.0000                 0.0000                 0.0000
 Atom AN      X      Y      Z        X      Y      Z        X      Y      Z
   1   7    -0.04  -0.02   0.00     0.00   0.00  -0.03     0.02   0.01   0.00
   2   1     0.02   0.00  -0.00    -0.00  -0.00  -0.00    -0.01  -0.00  -0.00
   3   6    -0.10  -0.16  -0.02    -0.18   0.02   0.01     0.18  -0.02  -0.00
   4   1     0.40   0.14   0.04    -0.01  -0.06   0.00     0.01   0.08  -0.00
   5   1    -0.02   0.43   0.06     0.68   0.02   0.01    -0.68  -0.02  -0.03
   6   6    -0.03  -0.05  -0.05    -0.00  -0.00   0.00    -0.00  -0.00  -0.00
   7   1    -0.04  -0.09   0.06    -0.00  -0.00  -0.00     0.00   0.00   0.01
   8   1    -0.02   0.20   0.05    -0.02  -0.00   0.00     0.02   0.00   0.00
   9   1     0.19   0.07   0.07    -0.00   0.01  -0.00     0.00  -0.01   0.00
  10   6    -0.09  -0.16   0.02     0.18  -0.02   0.01     0.18  -0.02   0.00
  11   1     0.39   0.14  -0.04     0.01   0.06   0.00     0.01   0.08   0.00
  12   1    -0.02   0.42  -0.06    -0.68  -0.02   0.02    -0.68  -0.02   0.03
  13   6    -0.03  -0.04   0.05     0.00   0.00   0.00    -0.00  -0.00   0.00
  14   1    -0.04  -0.09  -0.06     0.00   0.00  -0.00     0.00   0.00  -0.01
  15   1     0.18   0.07  -0.07     0.00  -0.01  -0.00     0.00  -0.01  -0.00
  16   1    -0.02   0.19  -0.04     0.02   0.00   0.00     0.02   0.00  -0.00
                     34                     35                     36
                        a                      a                      a 
 Frequencies --  2941.6326              2946.3981              3025.2796
 Red. masses --     1.6659                 1.6449                 1.7865
 Frc consts  --     0.0000                 0.0000                 0.0000
 IR Inten    --     0.0793                 0.3798                 0.0143
 Raman Activ --     0.0000                 0.0000                 0.0000
 Depolar     --     0.0000                 0.0000                 0.0000
 Atom AN      X      Y      Z        X      Y      Z        X      Y      Z
   1   7     0.00   0.00   0.01    -0.00  -0.01   0.00    -0.00   0.00   0.00
   2   1    -0.00   0.00   0.00     0.01  -0.02   0.00     0.00  -0.00  -0.00
   3   6    -0.05   0.17  -0.00     0.05  -0.16   0.00    -0.01   0.02  -0.00
   4   1     0.25  -0.64  -0.00    -0.24   0.62   0.01     0.02  -0.04  -0.00
   5   1    -0.07   0.03  -0.00     0.09  -0.03   0.00     0.00   0.00   0.00
   6   6     0.00  -0.01  -0.00    -0.00   0.01   0.01    -0.08   0.17   0.01
   7   1     0.01   0.01   0.01    -0.01  -0.01  -0.02    -0.03  -0.00  -0.05
   8   1    -0.01  -0.00  -0.00     0.00   0.00   0.00     0.04   0.03   0.01
   9   1    -0.02   0.04  -0.00     0.02  -0.05   0.00     0.25  -0.62   0.01
  10   6     0.05  -0.16  -0.00     0.05  -0.16  -0.00     0.01  -0.02  -0.00
  11   1    -0.24   0.63  -0.00    -0.25   0.64  -0.01    -0.02   0.04  -0.00
  12   1     0.07  -0.03  -0.00     0.09  -0.03  -0.00    -0.00  -0.00   0.00
  13   6    -0.00   0.01  -0.00    -0.00   0.01  -0.01     0.08  -0.17   0.01
  14   1    -0.01  -0.01   0.01    -0.01  -0.01   0.02     0.03   0.00  -0.05
  15   1     0.02  -0.04  -0.00     0.02  -0.05  -0.00    -0.26   0.63   0.01
  16   1     0.01   0.00  -0.00     0.00   0.00  -0.00    -0.04  -0.03   0.01
                     37                     38                     39
                        a                      a                      a 
 Frequencies --  3026.1148              3041.3896              3041.9043
 Red. masses --     1.7837                 1.6926                 1.6796
 Frc consts  --     0.0000                 0.0000                 0.0000
 IR Inten    --     0.3484                 0.2400                 0.1405
 Raman Activ --     0.0000                 0.0000                 0.0000
 Depolar     --     0.0000                 0.0000                 0.0000
 Atom AN      X      Y      Z        X      Y      Z        X      Y      Z
   1   7    -0.00   0.00  -0.00    -0.00  -0.00  -0.00    -0.00  -0.00   0.00
   2   1     0.00  -0.01   0.00    -0.00   0.00  -0.00    -0.00   0.01   0.00
   3   6     0.01  -0.02   0.00     0.00   0.01   0.00     0.00   0.01   0.00
   4   1    -0.02   0.05   0.00     0.00  -0.01   0.00     0.01  -0.01  -0.00
   5   1    -0.00  -0.00  -0.00    -0.01   0.00  -0.00    -0.01   0.00  -0.00
   6   6     0.08  -0.17  -0.01     0.07   0.09   0.17     0.04   0.06   0.12
   7   1     0.03  -0.00   0.04    -0.22  -0.39  -0.66    -0.15  -0.27  -0.45
   8   1    -0.05  -0.03  -0.01    -0.00   0.01   0.02     0.02   0.01   0.02
   9   1    -0.26   0.63  -0.01    -0.01   0.07   0.02    -0.01   0.04   0.02
  10   6     0.01  -0.02  -0.00    -0.00  -0.00   0.00     0.00   0.01  -0.00
  11   1    -0.02   0.05  -0.00    -0.00   0.01   0.00     0.01  -0.02   0.00
  12   1    -0.00  -0.00  -0.00     0.00  -0.00  -0.00    -0.01   0.00   0.00
  13   6     0.08  -0.17   0.01    -0.05  -0.06   0.12     0.06   0.09  -0.17
  14   1     0.03  -0.00  -0.04     0.15   0.27  -0.45    -0.22  -0.39   0.66
  15   1    -0.25   0.62   0.01     0.01  -0.05   0.02    -0.01   0.07  -0.02
  16   1    -0.05  -0.03   0.01     0.01  -0.01   0.01     0.01   0.01  -0.02
                     40                     41                     42
                        a                      a                      a 
 Frequencies --  3049.7759              3050.5854              3341.0989
 Red. masses --     1.6773                 1.6899                 1.8205
 Frc consts  --     0.0000                 0.0000                 0.0000
 IR Inten    --     0.0324                 0.2573                 0.1116
 Raman Activ --     0.0000                 0.0000                 0.0000
 Depolar     --     0.0000                 0.0000                 0.0000
 Atom AN      X      Y      Z        X      Y      Z        X      Y      Z
   1   7     0.00   0.00  -0.00     0.00   0.00   0.00     0.05  -0.24   0.00
   2   1    -0.00  -0.00   0.00    -0.00  -0.00  -0.00    -0.23   0.94  -0.00
   3   6    -0.01  -0.00   0.00    -0.01  -0.00   0.00     0.01  -0.01  -0.00
   4   1     0.00  -0.00  -0.00     0.00  -0.00   0.00    -0.01   0.01  -0.00
   5   1     0.02  -0.00   0.00     0.02  -0.00   0.00     0.00   0.00   0.00
   6   6    -0.19  -0.02  -0.01    -0.16  -0.02  -0.01    -0.00  -0.00  -0.00
   7   1    -0.03  -0.01  -0.01    -0.02   0.01   0.01     0.00   0.00   0.00
   8   1     0.75   0.03   0.03     0.61   0.03   0.03     0.00  -0.00  -0.00
   9   1    -0.05   0.05  -0.00    -0.04   0.04  -0.00    -0.00   0.00  -0.00
  10   6     0.01   0.00   0.00    -0.01  -0.00  -0.00     0.01  -0.01   0.00
  11   1    -0.00   0.00  -0.00     0.00  -0.00  -0.00    -0.01   0.01   0.00
  12   1    -0.01   0.00   0.00     0.02  -0.00  -0.00     0.00   0.00  -0.00
  13   6     0.15   0.02  -0.01    -0.19  -0.02   0.01    -0.00  -0.00   0.00
  14   1     0.02   0.01  -0.01    -0.02   0.00  -0.01     0.00   0.00  -0.00
  15   1     0.04  -0.04  -0.00    -0.05   0.05   0.00    -0.00   0.00   0.00
  16   1    -0.61  -0.03   0.03     0.75   0.03  -0.03     0.00  -0.00   0.00
