 Entering Gaussian System
 *********************************************
 Gaussian 98:
 frequency output generated by the xtb code
 *********************************************
                         Standard orientation:
 --------------------------------------------------------------------
  Center     Atomic     Atomic              Coordinates (Angstroms)
  Number     Number      Type              X           Y           Z
 --------------------------------------------------------------------
    1          7             0       -0.774118   -0.096029   -0.000077
    2          1             0       -0.505508   -1.077001    0.000020
    3          6             0       -0.292766    0.534426    1.213257
    4          1             0       -0.670484    1.562230    1.218591
    5          1             0        0.812214    0.586548    1.248961
    6          6             0       -0.809612   -0.208560    2.437042
    7          1             0       -0.514736    0.309598    3.345840
    8          1             0       -1.893804   -0.269280    2.399387
    9          1             0       -0.407977   -1.219564    2.468068
   10          6             0       -0.292631    0.534384   -1.213415
   11          1             0       -0.669379    1.562536   -1.218164
   12          1             0        0.812389    0.585463   -1.249511
   13          6             0       -0.810663   -0.207725   -2.437193
   14          1             0       -0.515685    0.310364   -3.345975
   15          1             0       -0.409970   -1.219094   -2.468628
   16          1             0       -1.894877   -0.267485   -2.399111
 --------------------------------------------------------------------
     1 basis functions        1 primitive gaussians
     1 alpha electrons        1 beta electrons
 
 Harmonic frequencies (cm**-1), IR intensities (KM/Mole),
 Raman scattering activities (A**4/amu), Raman depolarization ratios,
 reduced masses (AMU), force constants (mDyne/A) and normal coordinates:
                      1                      2                      3
                        a                      a                      a 
 Frequencies --   108.1386               100.4843               225.3365
 Red. masses --    99.0000                99.0000                99.0000
 Frc consts  --    99.0000                99.0000                99.0000
 IR Inten    --    99.0000                99.0000                99.0000
 Raman Activ --     0.0000                 0.0000                 0.0000
 Depolar     --     0.0000                 0.0000                 0.0000
 Atom AN      X      Y      Z        X      Y      Z        X      Y      Z
   1   7     0.00  -0.00   0.01    -0.55   0.34   0.00     0.01  -0.00   0.03
   2   1     0.00   0.00  -0.07    -0.30   0.05  -0.00     0.00  -0.00  -0.03
   3   6     0.33  -0.23  -0.00    -0.06   0.02  -0.02     0.22  -0.13   0.00
   4   1     0.26  -0.01  -0.01     0.02   0.02   0.09     0.13  -0.01  -0.00
   5   1     0.10  -0.25   0.01    -0.01  -0.04  -0.11     0.07  -0.11   0.00
   6   6    -0.16   0.11   0.00     0.30  -0.16   0.02    -0.03   0.02  -0.01
   7   1     0.08  -0.04   0.00     0.22  -0.12   0.00    -0.33   0.20  -0.01
   8   1    -0.06   0.27   0.02     0.08   0.00   0.13     0.01  -0.25  -0.24
   9   1    -0.27  -0.06  -0.02     0.05  -0.07  -0.10     0.22   0.10   0.23
  10   6    -0.33   0.23  -0.00    -0.06   0.02   0.02    -0.22   0.13   0.00
  11   1    -0.26   0.01  -0.01     0.02   0.02  -0.09    -0.14   0.01  -0.00
  12   1    -0.10   0.25   0.01    -0.01  -0.04   0.11    -0.07   0.12   0.00
  13   6     0.16  -0.11   0.00     0.30  -0.16  -0.02     0.03  -0.02  -0.01
  14   1    -0.08   0.04   0.00     0.22  -0.12  -0.00     0.34  -0.21  -0.01
  15   1     0.27   0.06  -0.02     0.05  -0.07   0.10    -0.23  -0.11   0.24
  16   1     0.06  -0.27   0.02     0.08   0.00  -0.13    -0.01   0.26  -0.24
                      4                      5                      6
                        a                      a                      a 
 Frequencies --   229.5809               184.8677               810.3662
 Red. masses --    99.0000                99.0000                99.0000
 Frc consts  --    99.0000                99.0000                99.0000
 IR Inten    --    99.0000                99.0000                99.0000
 Raman Activ --     0.0000                 0.0000                 0.0000
 Depolar     --     0.0000                 0.0000                 0.0000
 Atom AN      X      Y      Z        X      Y      Z        X      Y      Z
   1   7    -0.25   0.15   0.00     0.19   0.42  -0.00    -0.31  -0.14   0.00
   2   1    -0.21   0.00  -0.00    -0.01   0.10   0.00     0.71   0.16   0.00
   3   6     0.11  -0.08  -0.02     0.11   0.15   0.12    -0.01   0.13   0.06
   4   1     0.11   0.01   0.02     0.04   0.05   0.10     0.23   0.11   0.02
   5   1     0.04  -0.11  -0.04     0.03   0.03   0.09     0.01  -0.23  -0.05
   6   6     0.02   0.02   0.01    -0.16  -0.30  -0.26    -0.01   0.00   0.07
   7   1    -0.31   0.21  -0.01    -0.13  -0.19   0.01    -0.02  -0.09   0.07
   8   1     0.03  -0.28  -0.21    -0.04  -0.10  -0.17     0.00  -0.08   0.02
   9   1     0.27   0.12   0.23    -0.04  -0.09  -0.16     0.06   0.02  -0.10
  10   6     0.10  -0.08   0.02     0.11   0.15  -0.12    -0.01   0.13  -0.06
  11   1     0.11   0.01  -0.02     0.04   0.05  -0.10     0.23   0.11  -0.02
  12   1     0.03  -0.11   0.04     0.03   0.03  -0.09     0.01  -0.23   0.05
  13   6     0.02   0.02  -0.01    -0.16  -0.30   0.26    -0.01   0.00  -0.07
  14   1    -0.30   0.21   0.01    -0.13  -0.19  -0.01    -0.02  -0.09  -0.07
  15   1     0.26   0.11  -0.22    -0.04  -0.09   0.16     0.06   0.02   0.10
  16   1     0.03  -0.27   0.20    -0.04  -0.10   0.17     0.00  -0.08  -0.02
                      7                      8                      9
                        a                      a                      a 
 Frequencies --   422.7965               412.1294               852.7885
 Red. masses --    99.0000                99.0000                99.0000
 Frc consts  --    99.0000                99.0000                99.0000
 IR Inten    --    99.0000                99.0000                99.0000
 Raman Activ --     0.0000                 0.0000                 0.0000
 Depolar     --     0.0000                 0.0000                 0.0000
 Atom AN      X      Y      Z        X      Y      Z        X      Y      Z
   1   7     0.17   0.26  -0.00     0.00   0.00   0.39    -0.28  -0.08  -0.00
   2   1    -0.01   0.05  -0.00     0.00   0.00   0.19     0.19   0.04   0.00
   3   6    -0.03  -0.04   0.35     0.23   0.34   0.12     0.17   0.01   0.08
   4   1    -0.00  -0.01   0.15     0.06   0.09   0.03    -0.19  -0.08   0.15
   5   1    -0.01  -0.02   0.16     0.06   0.09   0.02     0.03   0.23  -0.19
   6   6    -0.05  -0.09   0.45    -0.03  -0.05  -0.27     0.10  -0.05   0.10
   7   1     0.01   0.02   0.10    -0.10  -0.17   0.04    -0.15  -0.03   0.09
   8   1    -0.02  -0.03   0.17    -0.01   0.00  -0.21     0.02   0.21  -0.27
   9   1    -0.00  -0.02   0.16    -0.03  -0.03  -0.20    -0.20  -0.10   0.16
  10   6    -0.03  -0.04  -0.35    -0.23  -0.34   0.12     0.17   0.01  -0.08
  11   1    -0.00  -0.01  -0.15    -0.06  -0.09   0.03    -0.19  -0.08  -0.15
  12   1    -0.01  -0.02  -0.16    -0.06  -0.09   0.02     0.03   0.23   0.19
  13   6    -0.05  -0.09  -0.45     0.03   0.05  -0.27     0.10  -0.05  -0.10
  14   1     0.01   0.02  -0.10     0.10   0.17   0.04    -0.15  -0.03  -0.09
  15   1    -0.00  -0.02  -0.16     0.03   0.03  -0.20    -0.20  -0.10  -0.16
  16   1    -0.02  -0.03  -0.17     0.01  -0.00  -0.21     0.02   0.21   0.27
                     10                     11                     12
                        a                      a                      a 
 Frequencies --   832.3878              1492.1158              1500.9180
 Red. masses --    99.0000                99.0000                99.0000
 Frc consts  --    99.0000                99.0000                99.0000
 IR Inten    --    99.0000                99.0000                99.0000
 Raman Activ --     0.0000                 0.0000                 0.0000
 Depolar     --     0.0000                 0.0000                 0.0000
 Atom AN      X      Y      Z        X      Y      Z        X      Y      Z
   1   7    -0.00   0.00  -0.01     0.01   0.00  -0.00     0.02   0.02   0.00
   2   1     0.00   0.00   0.10    -0.00   0.00   0.01     0.01   0.01  -0.00
   3   6    -0.15   0.11  -0.01    -0.02   0.01   0.00     0.04   0.05  -0.03
   4   1     0.31   0.15  -0.11    -0.00   0.01  -0.02    -0.21  -0.08   0.00
   5   1    -0.02  -0.33   0.11    -0.01  -0.02   0.00     0.00  -0.23  -0.00
   6   6    -0.08   0.04  -0.00    -0.11   0.09  -0.03    -0.06  -0.10  -0.06
   7   1     0.09  -0.07   0.01     0.38  -0.27   0.03    -0.08  -0.14   0.10
   8   1    -0.01  -0.22   0.22     0.01  -0.12  -0.26    -0.03   0.41   0.07
   9   1     0.21   0.09  -0.21     0.06   0.04   0.31     0.38   0.15   0.09
  10   6     0.15  -0.11  -0.01    -0.03   0.02  -0.00     0.04   0.06   0.03
  11   1    -0.31  -0.15  -0.11    -0.01   0.01   0.02    -0.21  -0.08  -0.00
  12   1     0.02   0.33   0.11    -0.01  -0.03  -0.00     0.00  -0.23   0.00
  13   6     0.08  -0.04  -0.00    -0.13   0.10   0.03    -0.06  -0.10   0.06
  14   1    -0.09   0.07   0.01     0.44  -0.31  -0.03    -0.08  -0.14  -0.09
  15   1    -0.21  -0.09  -0.21     0.07   0.05  -0.37     0.37   0.15  -0.09
  16   1     0.01   0.22   0.22     0.01  -0.15   0.30    -0.03   0.40  -0.07
                     13                     14                     15
                        a                      a                      a 
 Frequencies --  1492.2596              1502.2427              1496.5817
 Red. masses --    99.0000                99.0000                99.0000
 Frc consts  --    99.0000                99.0000                99.0000
 IR Inten    --    99.0000                99.0000                99.0000
 Raman Activ --     0.0000                 0.0000                 0.0000
 Depolar     --     0.0000                 0.0000                 0.0000
 Atom AN      X      Y      Z        X      Y      Z        X      Y      Z
   1   7    -0.00  -0.00  -0.03     0.00   0.00   0.03    -0.00  -0.00   0.02
   2   1     0.00  -0.00   0.08    -0.00  -0.00  -0.06     0.00  -0.00   0.03
   3   6     0.02  -0.05   0.01    -0.07  -0.09  -0.04     0.09   0.13  -0.02
   4   1     0.04   0.00   0.00     0.22   0.08   0.04    -0.39  -0.14  -0.01
   5   1     0.01   0.08  -0.00    -0.01   0.22   0.03     0.01  -0.41  -0.00
   6   6     0.12  -0.10   0.03    -0.07  -0.09  -0.07    -0.03  -0.07  -0.02
   7   1    -0.44   0.31  -0.03    -0.06  -0.17   0.10    -0.08  -0.04   0.04
   8   1    -0.01   0.15   0.30    -0.03   0.37   0.06    -0.02   0.25   0.05
   9   1    -0.06  -0.04  -0.36     0.36   0.14   0.13     0.21   0.08   0.01
  10   6    -0.02   0.05   0.01     0.07   0.09  -0.04    -0.09  -0.13  -0.02
  11   1    -0.04  -0.01   0.00    -0.22  -0.08   0.04     0.39   0.14  -0.01
  12   1    -0.00  -0.07  -0.00     0.01  -0.23   0.03    -0.01   0.42  -0.00
  13   6    -0.10   0.09   0.02     0.07   0.09  -0.08     0.03   0.07  -0.02
  14   1     0.38  -0.26  -0.03     0.06   0.17   0.10     0.08   0.04   0.04
  15   1     0.05   0.04  -0.31    -0.36  -0.14   0.14    -0.21  -0.08   0.01
  16   1     0.01  -0.13   0.25     0.03  -0.38   0.07     0.02  -0.25   0.05
                     16                     17                     18
                        a                      a                      a 
 Frequencies --   923.6576              1157.8347               981.9850
 Red. masses --    99.0000                99.0000                99.0000
 Frc consts  --    99.0000                99.0000                99.0000
 IR Inten    --    99.0000                99.0000                99.0000
 Raman Activ --     0.0000                 0.0000                 0.0000
 Depolar     --     0.0000                 0.0000                 0.0000
 Atom AN      X      Y      Z        X      Y      Z        X      Y      Z
   1   7    -0.06  -0.31   0.00    -0.34  -0.23   0.00    -0.00  -0.00  -0.36
   2   1    -0.37  -0.17   0.00    -0.01  -0.05   0.00     0.00  -0.00  -0.15
   3   6     0.09   0.15   0.10     0.35   0.16   0.13     0.08   0.13  -0.08
   4   1     0.03   0.04  -0.18    -0.09  -0.02  -0.03     0.03   0.03  -0.13
   5   1     0.02   0.04   0.02     0.06   0.18   0.14     0.02   0.03  -0.13
   6   6     0.00   0.11   0.20    -0.20  -0.08  -0.09     0.00   0.02   0.36
   7   1    -0.13  -0.27   0.26     0.14   0.10  -0.14    -0.18  -0.27   0.30
   8   1     0.01  -0.08  -0.09    -0.05  -0.09   0.25     0.01  -0.03  -0.13
   9   1     0.06   0.04  -0.25     0.08   0.03   0.06    -0.03  -0.02  -0.13
  10   6     0.09   0.15  -0.10     0.35   0.16  -0.13    -0.08  -0.13  -0.08
  11   1     0.03   0.04   0.18    -0.09  -0.02   0.03    -0.03  -0.03  -0.13
  12   1     0.02   0.04  -0.02     0.06   0.18  -0.14    -0.02  -0.03  -0.13
  13   6     0.00   0.11  -0.20    -0.20  -0.08   0.09    -0.00  -0.02   0.36
  14   1    -0.13  -0.27  -0.26     0.14   0.10   0.14     0.18   0.27   0.30
  15   1     0.06   0.04   0.25     0.08   0.03  -0.06     0.03   0.02  -0.13
  16   1     0.01  -0.08   0.09    -0.05  -0.09  -0.25    -0.01   0.03  -0.13
                     19                     20                     21
                        a                      a                      a 
 Frequencies --  1061.3890              1502.7143              1243.3924
 Red. masses --    99.0000                99.0000                99.0000
 Frc consts  --    99.0000                99.0000                99.0000
 IR Inten    --    99.0000                99.0000                99.0000
 Raman Activ --     0.0000                 0.0000                 0.0000
 Depolar     --     0.0000                 0.0000                 0.0000
 Atom AN      X      Y      Z        X      Y      Z        X      Y      Z
   1   7    -0.00  -0.00   0.13    -0.04  -0.02   0.00    -0.00  -0.00  -0.04
   2   1    -0.00  -0.00  -0.33     0.02   0.00  -0.00    -0.00  -0.00  -0.18
   3   6     0.00  -0.29   0.17    -0.10  -0.16  -0.02    -0.10   0.14   0.07
   4   1    -0.15  -0.13  -0.19     0.40   0.14   0.04     0.08   0.07  -0.39
   5   1    -0.01   0.08   0.18    -0.02   0.43   0.06    -0.03  -0.07   0.34
   6   6     0.04   0.27  -0.11    -0.03  -0.05  -0.05     0.18  -0.16  -0.01
   7   1     0.00  -0.10   0.07    -0.04  -0.09   0.06    -0.05   0.08  -0.04
   8   1     0.02  -0.06  -0.06    -0.02   0.20   0.05     0.04   0.16  -0.13
   9   1     0.11   0.10  -0.28     0.19   0.07   0.07    -0.12  -0.09   0.16
  10   6    -0.00   0.29   0.17    -0.09  -0.16   0.02     0.10  -0.14   0.07
  11   1     0.15   0.13  -0.19     0.39   0.14  -0.04    -0.08  -0.07  -0.39
  12   1     0.01  -0.08   0.18    -0.02   0.42  -0.06     0.03   0.07   0.34
  13   6    -0.04  -0.26  -0.11    -0.03  -0.04   0.05    -0.18   0.16  -0.01
  14   1    -0.00   0.10   0.07    -0.04  -0.09  -0.06     0.05  -0.08  -0.04
  15   1    -0.11  -0.10  -0.28     0.18   0.07  -0.07     0.12   0.09   0.16
  16   1    -0.02   0.06  -0.06    -0.02   0.19  -0.04    -0.04  -0.15  -0.13
                     22                     23                     24
                        a                      a                      a 
 Frequencies --  1199.6994              1091.1247              1100.6048
 Red. masses --    99.0000                99.0000                99.0000
 Frc consts  --    99.0000                99.0000                99.0000
 IR Inten    --    99.0000                99.0000                99.0000
 Raman Activ --     0.0000                 0.0000                 0.0000
 Depolar     --     0.0000                 0.0000                 0.0000
 Atom AN      X      Y      Z        X      Y      Z        X      Y      Z
   1   7    -0.07   0.33   0.00    -0.00  -0.00  -0.12     0.11   0.15  -0.00
   2   1     0.23   0.14   0.00     0.00  -0.00   0.12     0.02   0.04   0.00
   3   6     0.13  -0.34  -0.09    -0.31  -0.08   0.19     0.10   0.15  -0.44
   4   1    -0.19  -0.17  -0.02     0.11   0.04   0.24     0.04   0.05  -0.18
   5   1     0.02   0.15  -0.03    -0.07  -0.21  -0.14     0.04   0.06  -0.20
   6   6    -0.11   0.20   0.05     0.24   0.14  -0.10    -0.15  -0.22   0.26
   7   1     0.02  -0.12   0.09    -0.10  -0.03   0.06    -0.03  -0.04   0.05
   8   1    -0.02  -0.14   0.05     0.06   0.14  -0.27    -0.04  -0.06   0.12
   9   1     0.11   0.09  -0.23    -0.06  -0.01  -0.05    -0.05  -0.06   0.12
  10   6     0.13  -0.34   0.09     0.31   0.08   0.19     0.10   0.15   0.44
  11   1    -0.19  -0.16   0.01    -0.11  -0.04   0.24     0.04   0.05   0.18
  12   1     0.02   0.15   0.03     0.07   0.21  -0.14     0.04   0.06   0.20
  13   6    -0.11   0.20  -0.05    -0.24  -0.14  -0.10    -0.15  -0.22  -0.26
  14   1     0.02  -0.12  -0.09     0.10   0.03   0.06    -0.03  -0.04  -0.05
  15   1     0.11   0.09   0.23     0.06   0.01  -0.05    -0.05  -0.06  -0.12
  16   1    -0.02  -0.14  -0.05    -0.06  -0.14  -0.27    -0.04  -0.06  -0.12
                     25                     26                     27
                        a                      a                      a 
 Frequencies --  1275.5324              1175.5556              1354.8535
 Red. masses --    99.0000                99.0000                99.0000
 Frc consts  --    99.0000                99.0000                99.0000
 IR Inten    --    99.0000                99.0000                99.0000
 Raman Activ --     0.0000                 0.0000                 0.0000
 Depolar     --     0.0000                 0.0000                 0.0000
 Atom AN      X      Y      Z        X      Y      Z        X      Y      Z
   1   7     0.19  -0.18  -0.00     0.00  -0.00   0.61    -0.07  -0.11  -0.00
   2   1    -0.14  -0.09  -0.00    -0.00  -0.00   0.24    -0.02  -0.03   0.00
   3   6     0.01   0.04   0.03    -0.17  -0.18  -0.33     0.03   0.05  -0.33
   4   1     0.04   0.02   0.44     0.00  -0.02  -0.23    -0.03  -0.01   0.39
   5   1     0.02  -0.00  -0.43    -0.02  -0.05  -0.17    -0.01  -0.04   0.38
   6   6    -0.14   0.07  -0.02     0.04  -0.03   0.09     0.07   0.09  -0.01
   7   1     0.04  -0.02  -0.01    -0.06  -0.05   0.06    -0.09  -0.12   0.12
   8   1    -0.03  -0.09   0.11     0.01   0.01  -0.09     0.01  -0.07   0.07
   9   1     0.08   0.06  -0.07    -0.05  -0.03  -0.01    -0.08  -0.02   0.07
  10   6     0.01   0.04  -0.03     0.17   0.18  -0.33     0.03   0.05   0.33
  11   1     0.04   0.02  -0.44    -0.00   0.02  -0.23    -0.03  -0.01  -0.39
  12   1     0.02  -0.01   0.43     0.02   0.05  -0.17    -0.01  -0.04  -0.38
  13   6    -0.14   0.07   0.02    -0.04   0.03   0.09     0.07   0.09   0.01
  14   1     0.04  -0.02   0.01     0.06   0.05   0.06    -0.09  -0.12  -0.12
  15   1     0.08   0.06   0.07     0.05   0.03  -0.01    -0.08  -0.02  -0.07
  16   1    -0.03  -0.09  -0.11    -0.01  -0.01  -0.09     0.01  -0.07  -0.07
                     28                     29                     30
                        a                      a                      a 
 Frequencies --  1415.8324              1318.2534              1404.9934
 Red. masses --    99.0000                99.0000                99.0000
 Frc consts  --    99.0000                99.0000                99.0000
 IR Inten    --    99.0000                99.0000                99.0000
 Raman Activ --     0.0000                 0.0000                 0.0000
 Depolar     --     0.0000                 0.0000                 0.0000
 Atom AN      X      Y      Z        X      Y      Z        X      Y      Z
   1   7     0.00  -0.00  -0.33     0.00  -0.00  -0.07    -0.00  -0.00   0.04
   2   1    -0.00   0.00   0.76    -0.00  -0.00   0.30    -0.00  -0.00  -0.11
   3   6     0.07  -0.13   0.17     0.03  -0.06  -0.30    -0.01   0.03  -0.08
   4   1    -0.03  -0.05  -0.26    -0.04  -0.03   0.27     0.03   0.02   0.10
   5   1     0.01   0.09  -0.01    -0.00   0.01   0.49    -0.00   0.02   0.06
   6   6    -0.04  -0.01   0.02     0.07   0.08   0.05    -0.11  -0.13   0.26
   7   1     0.09   0.01  -0.04    -0.06  -0.09   0.10     0.21   0.24  -0.18
   8   1    -0.00   0.04  -0.08     0.02  -0.03  -0.03    -0.01   0.13  -0.34
   9   1     0.08   0.03  -0.03    -0.05  -0.01  -0.01     0.15   0.04  -0.29
  10   6    -0.07   0.13   0.17    -0.03   0.06  -0.30     0.01  -0.03  -0.08
  11   1     0.03   0.05  -0.26     0.04   0.03   0.26    -0.03  -0.02   0.10
  12   1    -0.01  -0.09  -0.01     0.00  -0.01   0.50     0.00  -0.02   0.06
  13   6     0.04   0.01   0.02    -0.08  -0.08   0.05     0.11   0.12   0.26
  14   1    -0.09  -0.01  -0.04     0.06   0.09   0.10    -0.21  -0.23  -0.18
  15   1    -0.08  -0.03  -0.03     0.05   0.01  -0.01    -0.15  -0.04  -0.29
  16   1     0.00  -0.04  -0.08    -0.02   0.03  -0.03     0.01  -0.13  -0.34
                     31                     32                     33
                        a                      a                      a 
 Frequencies --  1409.4268              2776.3974              2785.9172
 Red. masses --    99.0000                99.0000                99.0000
 Frc consts  --    99.0000                99.0000                99.0000
 IR Inten    --    99.0000                99.0000                99.0000
 Raman Activ --     0.0000                 0.0000                 0.0000
 Depolar     --     0.0000                 0.0000                 0.0000
 Atom AN      X      Y      Z        X      Y      Z        X      Y      Z
   1   7     0.02   0.05   0.00     0.00   0.00  -0.03     0.02   0.01   0.00
   2   1     0.02   0.02  -0.00    -0.00  -0.00  -0.00    -0.01  -0.00  -0.00
   3   6    -0.01  -0.03   0.12    -0.18   0.02   0.01     0.18  -0.02  -0.00
   4   1    -0.01  -0.01  -0.14    -0.01  -0.06   0.00     0.01   0.08  -0.00
   5   1     0.00  -0.01  -0.12     0.68   0.02   0.01    -0.68  -0.02  -0.03
   6   6     0.10   0.12  -0.26    -0.00  -0.00   0.00    -0.00  -0.00  -0.00
   7   1    -0.20  -0.22   0.17    -0.00  -0.00  -0.00     0.00   0.00   0.01
   8   1     0.00  -0.12   0.34    -0.02  -0.00   0.00     0.02   0.00   0.00
   9   1    -0.15  -0.04   0.28    -0.00   0.01  -0.00     0.00  -0.01   0.00
  10   6    -0.01  -0.03  -0.12     0.18  -0.02   0.01     0.18  -0.02   0.00
  11   1    -0.01  -0.01   0.14     0.01   0.06   0.00     0.01   0.08   0.00
  12   1     0.00  -0.01   0.12    -0.68  -0.02   0.02    -0.68  -0.02   0.03
  13   6     0.10   0.12   0.26     0.00   0.00   0.00    -0.00  -0.00   0.00
  14   1    -0.21  -0.22  -0.17     0.00   0.00  -0.00     0.00   0.00  -0.01
  15   1    -0.15  -0.04  -0.28     0.00  -0.01  -0.00     0.00  -0.01  -0.00
  16   1     0.00  -0.12  -0.34     0.02   0.00   0.00     0.02   0.00  -0.00
                     34                     35                     36
                        a                      a                      a 
 Frequencies --  2941.6326              2946.3981              3025.2796
 Red. masses --    99.0000                99.0000                99.0000
 Frc consts  --    99.0000                99.0000                99.0000
 IR Inten    --    99.0000                99.0000                99.0000
 Raman Activ --     0.0000                 0.0000                 0.0000
 Depolar     --     0.0000                 0.0000                 0.0000
 Atom AN      X      Y      Z        X      Y      Z        X      Y      Z
   1   7     0.00   0.00   0.01    -0.00  -0.01   0.00    -0.00   0.00   0.00
   2   1    -0.00   0.00   0.00     0.01  -0.02   0.00     0.00  -0.00  -0.00
   3   6    -0.05   0.17  -0.00     0.05  -0.16   0.00    -0.01   0.02  -0.00
   4   1     0.25  -0.64  -0.00    -0.24   0.62   0.01     0.02  -0.04  -0.00
   5   1    -0.07   0.03  -0.00     0.09  -0.03   0.00     0.00   0.00   0.00
   6   6     0.00  -0.01  -0.00    -0.00   0.01   0.01    -0.08   0.17   0.01
   7   1     0.01   0.01   0.01    -0.01  -0.01  -0.02    -0.03  -0.00  -0.05
   8   1    -0.01  -0.00  -0.00     0.00   0.00   0.00     0.04   0.03   0.01
   9   1    -0.02   0.04  -0.00     0.02  -0.05   0.00     0.25  -0.62   0.01
  10   6     0.05  -0.16  -0.00     0.05  -0.16  -0.00     0.01  -0.02  -0.00
  11   1    -0.24   0.63  -0.00    -0.25   0.64  -0.01    -0.02   0.04  -0.00
  12   1     0.07  -0.03  -0.00     0.09  -0.03  -0.00    -0.00  -0.00   0.00
  13   6    -0.00   0.01  -0.00    -0.00   0.01  -0.01     0.08  -0.17   0.01
  14   1    -0.01  -0.01   0.01    -0.01  -0.01   0.02     0.03   0.00  -0.05
  15   1     0.02  -0.04  -0.00     0.02  -0.05  -0.00    -0.26   0.63   0.01
  16   1     0.01   0.00  -0.00     0.00   0.00  -0.00    -0.04  -0.03   0.01
                     37                     38                     39
                        a                      a                      a 
 Frequencies --  3026.1148              3049.7759              3050.5854
 Red. masses --    99.0000                99.0000                99.0000
 Frc consts  --    99.0000                99.0000                99.0000
 IR Inten    --    99.0000                99.0000                99.0000
 Raman Activ --     0.0000                 0.0000                 0.0000
 Depolar     --     0.0000                 0.0000                 0.0000
 Atom AN      X      Y      Z        X      Y      Z        X      Y      Z
   1   7    -0.00   0.00  -0.00     0.00   0.00  -0.00     0.00   0.00   0.00
   2   1     0.00  -0.01   0.00    -0.00  -0.00   0.00    -0.00  -0.00  -0.00
   3   6     0.01  -0.02   0.00    -0.01  -0.00   0.00    -0.01  -0.00   0.00
   4   1    -0.02   0.05   0.00     0.00  -0.00  -0.00     0.00  -0.00   0.00
   5   1    -0.00  -0.00  -0.00     0.02  -0.00   0.00     0.02  -0.00   0.00
   6   6     0.08  -0.17  -0.01    -0.19  -0.02  -0.01    -0.16  -0.02  -0.01
   7   1     0.03  -0.00   0.04    -0.03  -0.01  -0.01    -0.02   0.01   0.01
   8   1    -0.05  -0.03  -0.01     0.75   0.03   0.03     0.61   0.03   0.03
   9   1    -0.26   0.63  -0.01    -0.05   0.05  -0.00    -0.04   0.04  -0.00
  10   6     0.01  -0.02  -0.00     0.01   0.00   0.00    -0.01  -0.00  -0.00
  11   1    -0.02   0.05  -0.00    -0.00   0.00  -0.00     0.00  -0.00  -0.00
  12   1    -0.00  -0.00  -0.00    -0.01   0.00   0.00     0.02  -0.00  -0.00
  13   6     0.08  -0.17   0.01     0.15   0.02  -0.01    -0.19  -0.02   0.01
  14   1     0.03  -0.00  -0.04     0.02   0.01  -0.01    -0.02   0.00  -0.01
  15   1    -0.25   0.62   0.01     0.04  -0.04  -0.00    -0.05   0.05   0.00
  16   1    -0.05  -0.03   0.01    -0.61  -0.03   0.03     0.75   0.03  -0.03
                     40                     41                     42
                        a                      a                      a 
 Frequencies --  3041.3896              3041.9043              3341.0989
 Red. masses --    99.0000                99.0000                99.0000
 Frc consts  --    99.0000                99.0000                99.0000
 IR Inten    --    99.0000                99.0000                99.0000
 Raman Activ --     0.0000                 0.0000                 0.0000
 Depolar     --     0.0000                 0.0000                 0.0000
 Atom AN      X      Y      Z        X      Y      Z        X      Y      Z
   1   7    -0.00  -0.00  -0.00    -0.00  -0.00   0.00     0.05  -0.24   0.00
   2   1    -0.00   0.00  -0.00    -0.00   0.01   0.00    -0.23   0.94  -0.00
   3   6     0.00   0.01   0.00     0.00   0.01   0.00     0.01  -0.01  -0.00
   4   1     0.00  -0.01   0.00     0.01  -0.01  -0.00    -0.01   0.01  -0.00
   5   1    -0.01   0.00  -0.00    -0.01   0.00  -0.00     0.00   0.00   0.00
   6   6     0.07   0.09   0.17     0.04   0.06   0.12    -0.00  -0.00  -0.00
   7   1    -0.22  -0.39  -0.66    -0.15  -0.27  -0.45     0.00   0.00   0.00
   8   1    -0.00   0.01   0.02     0.02   0.01   0.02     0.00  -0.00  -0.00
   9   1    -0.01   0.07   0.02    -0.01   0.04   0.02    -0.00   0.00  -0.00
  10   6    -0.00  -0.00   0.00     0.00   0.01  -0.00     0.01  -0.01   0.00
  11   1    -0.00   0.01   0.00     0.01  -0.02   0.00    -0.01   0.01   0.00
  12   1     0.00  -0.00  -0.00    -0.01   0.00   0.00     0.00   0.00  -0.00
  13   6    -0.05  -0.06   0.12     0.06   0.09  -0.17    -0.00  -0.00   0.00
  14   1     0.15   0.27  -0.45    -0.22  -0.39   0.66     0.00   0.00  -0.00
  15   1     0.01  -0.05   0.02    -0.01   0.07  -0.02    -0.00   0.00   0.00
  16   1     0.01  -0.01   0.01     0.01   0.01  -0.02     0.00  -0.00   0.00
