 Entering Gaussian System
 *********************************************
 Gaussian 98:
 frequency output generated by the xtb code
 *********************************************
                         Standard orientation:
 --------------------------------------------------------------------
  Center     Atomic     Atomic              Coordinates (Angstroms)
  Number     Number      Type              X           Y           Z
 --------------------------------------------------------------------
    1          6             0       -0.783999   -0.797589    0.548619
    2          1             0       -0.421379   -1.824835    0.549901
    3          1             0       -0.421005   -0.284260    1.438294
    4          1             0       -1.873369   -0.798085    0.549904
    5          6             0       -0.305315   -0.120649   -0.624734
    6          7             0        0.076246    0.418941   -1.556833
 --------------------------------------------------------------------
     1 basis functions        1 primitive gaussians
     1 alpha electrons        1 beta electrons
 
 Harmonic frequencies (cm**-1), IR intensities (KM/Mole),
 Raman scattering activities (A**4/amu), Raman depolarization ratios,
 reduced masses (AMU), force constants (mDyne/A) and normal coordinates:
                      1                      2                      3
                        a                      a                      a 
 Frequencies --   387.4655               387.4801               993.3382
 Red. masses --    10.1315                10.1320                10.4317
 Frc consts  --     0.0000                 0.0000                 0.0000
 IR Inten    --     0.3528                 0.3529                 0.3813
 Raman Activ --     0.0000                 0.0000                 0.0000
 Depolar     --     0.0000                 0.0000                 0.0000
 Atom AN      X      Y      Z        X      Y      Z        X      Y      Z
   1   6    -0.09   0.09   0.02    -0.09  -0.07  -0.07    -0.22  -0.31   0.54
   2   1    -0.20  -0.03   0.26    -0.07  -0.04  -0.16    -0.10  -0.10   0.21
   3   1    -0.08   0.14  -0.04    -0.20  -0.22   0.16    -0.10  -0.13   0.19
   4   1    -0.03   0.21  -0.16    -0.03   0.02  -0.26    -0.06  -0.12   0.21
   5   6     0.51  -0.54  -0.10     0.49   0.39   0.42     0.11   0.15  -0.26
   6   7    -0.31   0.33   0.06    -0.30  -0.23  -0.26     0.17   0.24  -0.42
                      4                      5                      6
                        a                      a                      a 
 Frequencies --   998.5222               998.5356              1367.8713
 Red. masses --     4.6421                 4.6418                 3.7140
 Frc consts  --     0.0000                 0.0000                 0.0000
 IR Inten    --     0.2297                 0.2297                 0.3551
 Raman Activ --     0.0000                 0.0000                 0.0000
 Depolar     --     0.0000                 0.0000                 0.0000
 Atom AN      X      Y      Z        X      Y      Z        X      Y      Z
   1   6    -0.29   0.32   0.07    -0.30  -0.21  -0.24     0.16   0.23  -0.40
   2   1     0.30   0.20  -0.50     0.11   0.02   0.24    -0.24  -0.06   0.43
   3   1     0.10  -0.23   0.12     0.30   0.32  -0.42    -0.24  -0.35   0.27
   4   1    -0.06  -0.36   0.30    -0.06  -0.09   0.47     0.03  -0.25   0.43
   5   6     0.24  -0.27  -0.06     0.25   0.17   0.20    -0.01  -0.01   0.02
   6   7    -0.04   0.05   0.01    -0.05  -0.03  -0.04    -0.02  -0.03   0.05
                      7                      8                      9
                        a                      a                      a 
 Frequencies --  1427.0195              1427.0688              2421.8091
 Red. masses --     1.5393                 1.5391                12.7743
 Frc consts  --     0.0000                 0.0000                 0.0000
 IR Inten    --     0.0921                 0.0926                 1.6044
 Raman Activ --     0.0000                 0.0000                 0.0000
 Depolar     --     0.0000                 0.0000                 0.0000
 Atom AN      X      Y      Z        X      Y      Z        X      Y      Z
   1   6     0.18  -0.11   0.01    -0.08  -0.15  -0.12    -0.03  -0.04   0.08
   2   1    -0.20  -0.09  -0.45     0.58   0.19   0.12    -0.01   0.01   0.01
   3   1    -0.57   0.44  -0.02    -0.22  -0.20   0.18    -0.01  -0.02   0.00
   4   1     0.02   0.10   0.42    -0.01   0.64   0.20     0.01  -0.01   0.01
   5   6     0.04  -0.02   0.00    -0.02  -0.03  -0.03     0.26   0.37  -0.63
   6   7    -0.01   0.00  -0.00     0.00   0.00   0.00    -0.21  -0.29   0.51
                     10                     11                     12
                        a                      a                      a 
 Frequencies --  3018.0773              3018.3419              3020.1046
 Red. masses --     1.9481                 1.9541                 1.2491
 Frc consts  --     0.0000                 0.0000                 0.0000
 IR Inten    --     0.0841                 0.0843                 0.0339
 Raman Activ --     0.0000                 0.0000                 0.0000
 Depolar     --     0.0000                 0.0000                 0.0000
 Atom AN      X      Y      Z        X      Y      Z        X      Y      Z
   1   6     0.12   0.19   0.18     0.24  -0.16   0.01     0.06   0.08  -0.10
   2   1     0.14  -0.33   0.02    -0.20   0.64   0.00     0.21  -0.56  -0.01
   3   1    -0.27  -0.38  -0.68     0.02  -0.04  -0.03     0.17   0.25   0.39
   4   1    -0.31   0.03   0.02    -0.68  -0.02  -0.00    -0.61   0.01  -0.01
   5   6     0.00   0.00   0.01     0.01  -0.00   0.00     0.01   0.01  -0.02
   6   7     0.00   0.00  -0.00     0.00   0.00  -0.00    -0.01  -0.01   0.01
