 Entering Gaussian System
 *********************************************
 Gaussian 98:
 frequency output generated by the xtb code
 *********************************************
                         Standard orientation:
 --------------------------------------------------------------------
  Center     Atomic     Atomic              Coordinates (Angstroms)
  Number     Number      Type              X           Y           Z
 --------------------------------------------------------------------
    1          6             0       -3.346264   -1.252256    6.155673
    2          8             0       -2.157001   -1.428977    6.155682
    3          8             0       -3.914598   -0.043077    6.155636
    4          6             0       -4.390688   -2.338224    6.155710
    5          1             0       -5.019463   -2.234598    7.036314
    6          1             0       -5.019550   -2.234583    5.275171
    7          1             0       -3.906045   -3.309295    6.155682
    8          6             0       -3.029264    1.079281    6.155619
    9          1             0       -2.387605    1.022171    7.042018
   10          1             0       -2.387575    1.022124    5.269246
   11          6             0       -3.862116    2.347084    6.155575
   12          1             0       -3.207399    3.213503    6.155652
   13          1             0       -4.495113    2.379010    5.273011
   14          1             0       -4.495260    2.378964    7.038035
 --------------------------------------------------------------------
     1 basis functions        1 primitive gaussians
     1 alpha electrons        1 beta electrons
 
 Harmonic frequencies (cm**-1), IR intensities (KM/Mole),
 Raman scattering activities (A**4/amu), Raman depolarization ratios,
 reduced masses (AMU), force constants (mDyne/A) and normal coordinates:
                      1                      2                      3
                        a                      a                      a 
 Frequencies --   -38.8603                22.6666               150.2708
 Red. masses --    99.0000                99.0000                99.0000
 Frc consts  --    99.0000                99.0000                99.0000
 IR Inten    --    99.0000                99.0000                99.0000
 Raman Activ --     0.0000                 0.0000                 0.0000
 Depolar     --     0.0000                 0.0000                 0.0000
 Atom AN      X      Y      Z        X      Y      Z        X      Y      Z
   1   6     0.00  -0.00   0.02     0.00  -0.00  -0.02     0.00  -0.00   0.12
   2   8     0.00   0.00  -0.13     0.00  -0.00  -0.38     0.00   0.00   0.15
   3   8    -0.00   0.00   0.12     0.00   0.00   0.46    -0.00   0.00   0.44
   4   6    -0.00  -0.00   0.00    -0.00  -0.00  -0.06    -0.00  -0.00  -0.34
   5   1    -0.37   0.32  -0.31    -0.01  -0.01  -0.02    -0.02  -0.11  -0.10
   6   1     0.37  -0.32  -0.31     0.01   0.01  -0.02     0.02   0.11  -0.10
   7   1     0.00  -0.00   0.53    -0.00  -0.00  -0.03    -0.00  -0.00  -0.20
   8   6     0.00  -0.00  -0.05     0.00   0.00   0.43    -0.00  -0.00  -0.15
   9   1     0.04   0.00  -0.04    -0.13   0.09   0.22     0.11   0.05  -0.12
  10   1    -0.04  -0.00  -0.04     0.13  -0.09   0.22    -0.11  -0.05  -0.12
  11   6     0.00   0.00   0.06    -0.00  -0.00  -0.40     0.00   0.00  -0.10
  12   1     0.00  -0.00  -0.02    -0.00   0.00  -0.10     0.00   0.00  -0.43
  13   1    -0.04  -0.00   0.05     0.13  -0.08  -0.21    -0.29  -0.19   0.17
  14   1     0.04   0.00   0.05    -0.13   0.08  -0.21     0.29   0.19   0.17
                      4                      5                      6
                        a                      a                      a 
 Frequencies --   172.1592               224.5022               405.3889
 Red. masses --    99.0000                99.0000                99.0000
 Frc consts  --    99.0000                99.0000                99.0000
 IR Inten    --    99.0000                99.0000                99.0000
 Raman Activ --     0.0000                 0.0000                 0.0000
 Depolar     --     0.0000                 0.0000                 0.0000
 Atom AN      X      Y      Z        X      Y      Z        X      Y      Z
   1   6    -0.15   0.04  -0.00    -0.00   0.00   0.15    -0.28   0.14  -0.00
   2   8    -0.11   0.42  -0.00    -0.00   0.00   0.04    -0.37  -0.12   0.00
   3   8    -0.39  -0.04  -0.00    -0.00   0.00   0.44     0.14   0.36   0.00
   4   6     0.23  -0.31   0.00     0.00  -0.00  -0.16     0.16  -0.30  -0.00
   5   1     0.06  -0.16   0.00    -0.03  -0.07  -0.06     0.03  -0.24   0.00
   6   1     0.06  -0.16  -0.00     0.03   0.07  -0.06     0.03  -0.24  -0.00
   7   1     0.18  -0.04   0.00     0.00   0.00  -0.11     0.27   0.02  -0.00
   8   6    -0.12  -0.19   0.00     0.00  -0.00  -0.35     0.37   0.18  -0.00
   9   1    -0.03  -0.11  -0.00     0.15   0.05  -0.21     0.10   0.05   0.00
  10   1    -0.03  -0.11   0.00    -0.15  -0.05  -0.21     0.10   0.05  -0.00
  11   6     0.41   0.14  -0.00     0.00  -0.00  -0.04    -0.07  -0.12  -0.00
  12   1     0.24  -0.05   0.00    -0.00  -0.00   0.41    -0.17   0.07  -0.00
  13   1     0.12   0.13  -0.00     0.24   0.25  -0.17    -0.03  -0.15   0.00
  14   1     0.12   0.13   0.00    -0.24  -0.25  -0.17    -0.03  -0.15  -0.00
                      7                      8                      9
                        a                      a                      a 
 Frequencies --   581.7364               626.1175               822.4564
 Red. masses --    99.0000                99.0000                99.0000
 Frc consts  --    99.0000                99.0000                99.0000
 IR Inten    --    99.0000                99.0000                99.0000
 Raman Activ --     0.0000                 0.0000                 0.0000
 Depolar     --     0.0000                 0.0000                 0.0000
 Atom AN      X      Y      Z        X      Y      Z        X      Y      Z
   1   6     0.00  -0.00  -0.73    -0.05  -0.33   0.00     0.00  -0.00   0.02
   2   8     0.00   0.00   0.31     0.07   0.46  -0.00     0.00  -0.00  -0.01
   3   8    -0.00  -0.00   0.29     0.31  -0.14  -0.00    -0.00   0.00  -0.10
   4   6    -0.00   0.00  -0.05    -0.40  -0.41   0.00     0.00  -0.00   0.01
   5   1     0.22   0.25   0.12    -0.11  -0.06  -0.00    -0.01  -0.01  -0.00
   6   1    -0.22  -0.25   0.12    -0.11  -0.06   0.00     0.01   0.01  -0.00
   7   1    -0.00  -0.00   0.17    -0.22  -0.17   0.00    -0.00  -0.00  -0.01
   8   6     0.00   0.00   0.01     0.16   0.19   0.00     0.00   0.00   0.27
   9   1     0.06   0.03  -0.04     0.05   0.09   0.00     0.37  -0.24  -0.22
  10   1    -0.06  -0.03  -0.04     0.05   0.09  -0.00    -0.37   0.24  -0.22
  11   6     0.00   0.00  -0.01    -0.04   0.17   0.00    -0.00   0.00   0.11
  12   1    -0.00   0.00   0.00    -0.03   0.07   0.00    -0.00   0.00  -0.15
  13   1     0.01  -0.00  -0.01    -0.01   0.04   0.00     0.25  -0.32  -0.17
  14   1    -0.01   0.00  -0.01    -0.01   0.04  -0.00    -0.25   0.32  -0.17
                     10                     11                     12
                        a                      a                      a 
 Frequencies --   889.7847              1002.4309               350.4275
 Red. masses --    99.0000                99.0000                99.0000
 Frc consts  --    99.0000                99.0000                99.0000
 IR Inten    --    99.0000                99.0000                99.0000
 Raman Activ --     0.0000                 0.0000                 0.0000
 Depolar     --     0.0000                 0.0000                 0.0000
 Atom AN      X      Y      Z        X      Y      Z        X      Y      Z
   1   6     0.13  -0.08   0.00     0.08   0.14  -0.00     0.04  -0.12   0.00
   2   8     0.18  -0.13  -0.00     0.16   0.02   0.00    -0.01  -0.52   0.00
   3   8    -0.56   0.04  -0.00    -0.01  -0.33   0.00     0.07  -0.05  -0.00
   4   6     0.05  -0.15   0.00    -0.34   0.24   0.00     0.11  -0.22   0.00
   5   1     0.02   0.12  -0.01    -0.10  -0.32   0.03     0.03  -0.11   0.00
   6   1     0.02   0.12   0.01    -0.10  -0.32  -0.03     0.03  -0.11  -0.00
   7   1    -0.22  -0.15   0.00     0.40   0.30  -0.00     0.09  -0.03   0.00
   8   6     0.26   0.18   0.00     0.04  -0.06   0.00    -0.25   0.29  -0.00
   9   1     0.04  -0.10   0.01     0.00  -0.12  -0.00    -0.07   0.11  -0.00
  10   1     0.04  -0.10  -0.01     0.00  -0.12   0.00    -0.07   0.11   0.00
  11   6     0.12   0.22   0.00     0.06   0.21  -0.00    -0.01   0.54  -0.00
  12   1    -0.32   0.32   0.00    -0.20   0.22  -0.00     0.11   0.07   0.00
  13   1    -0.01  -0.21   0.02    -0.02  -0.10   0.01     0.01   0.24  -0.00
  14   1    -0.01  -0.21  -0.02    -0.02  -0.10  -0.01     0.01   0.24   0.00
                     13                     14                     15
                        a                      a                      a 
 Frequencies --  1006.7559              1142.9317              1239.2142
 Red. masses --    99.0000                99.0000                99.0000
 Frc consts  --    99.0000                99.0000                99.0000
 IR Inten    --    99.0000                99.0000                99.0000
 Raman Activ --     0.0000                 0.0000                 0.0000
 Depolar     --     0.0000                 0.0000                 0.0000
 Atom AN      X      Y      Z        X      Y      Z        X      Y      Z
   1   6    -0.00  -0.00  -0.49    -0.00   0.00  -0.02    -0.00  -0.00  -0.00
   2   8    -0.00  -0.00   0.10    -0.00  -0.00   0.01     0.00   0.00  -0.00
   3   8     0.00   0.00   0.07     0.00  -0.00   0.18    -0.00   0.00  -0.12
   4   6     0.00  -0.00   0.42     0.00  -0.00  -0.00     0.00   0.00   0.01
   5   1    -0.36  -0.34  -0.12     0.00   0.00  -0.00    -0.01  -0.00  -0.00
   6   1     0.36   0.34  -0.12    -0.00  -0.00  -0.00     0.01   0.00  -0.00
   7   1    -0.00  -0.00  -0.21    -0.00  -0.00  -0.00     0.00   0.00  -0.00
   8   6    -0.00   0.00   0.01    -0.00  -0.00  -0.48     0.00   0.00  -0.08
   9   1     0.01   0.00  -0.00    -0.35  -0.22   0.12     0.04   0.61  -0.01
  10   1    -0.01  -0.00  -0.00     0.35   0.22   0.12    -0.04  -0.61  -0.01
  11   6    -0.00  -0.00  -0.01     0.00   0.00   0.31    -0.00  -0.00   0.28
  12   1     0.00  -0.00   0.00    -0.00   0.00  -0.15     0.00   0.00  -0.09
  13   1    -0.01   0.01   0.00     0.21  -0.26  -0.09     0.17  -0.19  -0.06
  14   1     0.01  -0.01   0.00    -0.21   0.26  -0.09    -0.17   0.19  -0.06
                     16                     17                     18
                        a                      a                      a 
 Frequencies --  1088.6394              1127.4942              1445.2755
 Red. masses --    99.0000                99.0000                99.0000
 Frc consts  --    99.0000                99.0000                99.0000
 IR Inten    --    99.0000                99.0000                99.0000
 Raman Activ --     0.0000                 0.0000                 0.0000
 Depolar     --     0.0000                 0.0000                 0.0000
 Atom AN      X      Y      Z        X      Y      Z        X      Y      Z
   1   6     0.01   0.04  -0.00     0.04   0.07   0.00    -0.00   0.00  -0.04
   2   8     0.02  -0.01   0.00     0.11  -0.04  -0.00     0.00  -0.00   0.00
   3   8     0.23   0.35  -0.00    -0.33  -0.12   0.00     0.00  -0.00   0.01
   4   6     0.02  -0.10   0.00    -0.06   0.03  -0.00     0.00  -0.00  -0.23
   5   1     0.00   0.03  -0.01    -0.02  -0.04   0.00     0.07  -0.44   0.07
   6   1     0.00   0.03   0.01    -0.02  -0.04  -0.00    -0.08   0.44   0.08
   7   1    -0.09  -0.07   0.00     0.04   0.03   0.00     0.01   0.00   0.73
   8   6     0.01  -0.64   0.00     0.57  -0.01  -0.00     0.00  -0.00   0.00
   9   1     0.04  -0.25  -0.02     0.12  -0.03   0.01     0.00   0.00   0.00
  10   1     0.04  -0.25   0.02     0.12  -0.03  -0.01    -0.00  -0.00  -0.00
  11   6    -0.22   0.38  -0.00    -0.42   0.01   0.00    -0.00   0.00   0.00
  12   1    -0.13   0.15  -0.00     0.24  -0.24  -0.00     0.00  -0.00  -0.01
  13   1    -0.08   0.08   0.01    -0.04   0.32  -0.03     0.00   0.01  -0.00
  14   1    -0.08   0.08  -0.01    -0.04   0.32   0.03    -0.00  -0.01  -0.00
                     19                     20                     21
                        a                      a                      a 
 Frequencies --  1445.3254              1474.9349              1475.2228
 Red. masses --    99.0000                99.0000                99.0000
 Frc consts  --    99.0000                99.0000                99.0000
 IR Inten    --    99.0000                99.0000                99.0000
 Raman Activ --     0.0000                 0.0000                 0.0000
 Depolar     --     0.0000                 0.0000                 0.0000
 Atom AN      X      Y      Z        X      Y      Z        X      Y      Z
   1   6     0.02  -0.01  -0.00     0.00   0.00   0.00    -0.01   0.01  -0.00
   2   8    -0.05   0.00   0.00    -0.00  -0.00  -0.00     0.01  -0.01   0.00
   3   8    -0.00   0.01   0.00    -0.00  -0.00  -0.00    -0.05  -0.03   0.00
   4   6    -0.11   0.20  -0.00     0.00  -0.00   0.00     0.00  -0.01   0.00
   5   1     0.44  -0.29   0.36    -0.00   0.01  -0.00    -0.01   0.01  -0.01
   6   1     0.44  -0.27  -0.35     0.00  -0.01  -0.00    -0.01   0.01   0.01
   7   1    -0.35  -0.14   0.01     0.00   0.00  -0.01     0.01   0.01  -0.00
   8   6    -0.01   0.01   0.00    -0.00   0.00   0.04    -0.26   0.05  -0.00
   9   1     0.02  -0.01  -0.01     0.02  -0.02  -0.00     0.55   0.00  -0.40
  10   1     0.02  -0.01   0.01    -0.02   0.02   0.00     0.55   0.00   0.40
  11   6     0.00  -0.01   0.00     0.00  -0.00   0.21     0.03  -0.03  -0.00
  12   1    -0.00   0.00  -0.00    -0.00   0.00  -0.72    -0.02   0.01   0.00
  13   1    -0.01   0.01   0.01     0.16   0.43  -0.08    -0.04   0.03   0.03
  14   1    -0.01   0.01  -0.01    -0.16  -0.43  -0.08    -0.04   0.03  -0.03
                     22                     23                     24
                        a                      a                      a 
 Frequencies --  1327.8555              1491.5201              1208.5911
 Red. masses --    99.0000                99.0000                99.0000
 Frc consts  --    99.0000                99.0000                99.0000
 IR Inten    --    99.0000                99.0000                99.0000
 Raman Activ --     0.0000                 0.0000                 0.0000
 Depolar     --     0.0000                 0.0000                 0.0000
 Atom AN      X      Y      Z        X      Y      Z        X      Y      Z
   1   6     0.03   0.10   0.00     0.00  -0.00   0.00     0.04   0.78  -0.00
   2   8    -0.00  -0.01  -0.00     0.00  -0.00   0.00    -0.12  -0.05   0.00
   3   8    -0.13  -0.06  -0.00    -0.00  -0.00  -0.00     0.15  -0.41  -0.00
   4   6     0.02   0.02  -0.00     0.00  -0.00  -0.00     0.01  -0.25  -0.00
   5   1    -0.03  -0.05  -0.02    -0.00   0.00  -0.00    -0.02   0.06  -0.02
   6   1    -0.03  -0.05   0.02    -0.00   0.00   0.00    -0.02   0.06   0.02
   7   1    -0.07  -0.03   0.00     0.00   0.00   0.00    -0.26  -0.18  -0.00
   8   6     0.08  -0.44   0.00     0.05   0.05   0.00     0.00   0.05   0.00
   9   1     0.03   0.58   0.03    -0.03  -0.04   0.03    -0.01  -0.07  -0.00
  10   1     0.03   0.58  -0.03    -0.03  -0.04  -0.03    -0.01  -0.07   0.00
  11   6     0.12   0.03  -0.00     0.20   0.07   0.00     0.01   0.02   0.00
  12   1    -0.15   0.14   0.00     0.23  -0.15  -0.00    -0.02   0.03   0.00
  13   1    -0.05   0.05   0.06    -0.53  -0.09   0.39     0.00  -0.00  -0.00
  14   1    -0.05   0.05  -0.06    -0.52  -0.09  -0.39     0.00  -0.00   0.00
                     25                     26                     27
                        a                      a                      a 
 Frequencies --   967.6690              1781.5669              2923.1466
 Red. masses --    99.0000                99.0000                99.0000
 Frc consts  --    99.0000                99.0000                99.0000
 IR Inten    --    99.0000                99.0000                99.0000
 Raman Activ --     0.0000                 0.0000                 0.0000
 Depolar     --     0.0000                 0.0000                 0.0000
 Atom AN      X      Y      Z        X      Y      Z        X      Y      Z
   1   6    -0.25  -0.25   0.00    -0.79   0.09  -0.00    -0.00   0.00   0.00
   2   8    -0.40   0.13  -0.00     0.59  -0.08   0.00     0.00  -0.00  -0.00
   3   8     0.13  -0.48   0.00     0.05  -0.04   0.00    -0.00  -0.00  -0.01
   4   6     0.36   0.28  -0.00     0.06   0.03  -0.00     0.00  -0.00   0.00
   5   1     0.11   0.18  -0.00     0.03   0.02   0.02     0.00  -0.00  -0.00
   6   1     0.11   0.18   0.00     0.03   0.02  -0.02    -0.00   0.00  -0.00
   7   1     0.04   0.05  -0.00    -0.05  -0.02   0.00    -0.00   0.00   0.00
   8   6     0.20  -0.01   0.00    -0.01  -0.00   0.00    -0.00   0.00  -0.30
   9   1     0.05  -0.03  -0.00    -0.01   0.02   0.00     0.41  -0.04   0.54
  10   1     0.05  -0.03   0.00    -0.01   0.02  -0.00    -0.41   0.04   0.54
  11   6    -0.06   0.24  -0.00     0.01   0.01   0.00    -0.00   0.00   0.01
  12   1    -0.12   0.14  -0.00    -0.00   0.00  -0.00    -0.00  -0.00   0.00
  13   1    -0.03   0.01   0.01     0.00  -0.01  -0.00    -0.03   0.00  -0.04
  14   1    -0.03   0.01  -0.01     0.00  -0.01   0.00     0.03  -0.00  -0.04
                     28                     29                     30
                        a                      a                      a 
 Frequencies --  2944.9338              3037.9787              3051.3358
 Red. masses --    99.0000                99.0000                99.0000
 Frc consts  --    99.0000                99.0000                99.0000
 IR Inten    --    99.0000                99.0000                99.0000
 Raman Activ --     0.0000                 0.0000                 0.0000
 Depolar     --     0.0000                 0.0000                 0.0000
 Atom AN      X      Y      Z        X      Y      Z        X      Y      Z
   1   6     0.00  -0.00  -0.00     0.00  -0.00  -0.01     0.00   0.00   0.00
   2   8    -0.00   0.00  -0.00    -0.00   0.00   0.00    -0.00   0.00  -0.00
   3   8     0.01   0.01  -0.00    -0.00   0.00   0.00     0.00   0.00  -0.00
   4   6    -0.00   0.00   0.00     0.00   0.00  -0.29     0.00   0.00   0.00
   5   1     0.00  -0.00  -0.00    -0.41   0.07   0.54     0.01  -0.00  -0.01
   6   1     0.00  -0.00   0.00     0.40  -0.07   0.53    -0.01   0.00  -0.01
   7   1    -0.00  -0.00   0.00     0.00  -0.00  -0.04     0.00  -0.00   0.00
   8   6     0.20  -0.03  -0.00     0.00  -0.00  -0.00     0.00  -0.00   0.03
   9   1    -0.37   0.03  -0.58     0.00   0.00   0.00    -0.02   0.00  -0.03
  10   1    -0.38   0.03   0.58    -0.00  -0.00   0.00     0.02  -0.00  -0.03
  11   6    -0.01  -0.01   0.00    -0.00  -0.00   0.00     0.00  -0.00   0.29
  12   1     0.01   0.02   0.00     0.00   0.00   0.00     0.00   0.00   0.04
  13   1     0.02  -0.00   0.03    -0.01   0.00  -0.01    -0.41   0.01  -0.54
  14   1     0.02  -0.00  -0.03     0.01  -0.00  -0.01     0.40  -0.01  -0.53
                     31                     32                     33
                        a                      a                      a 
 Frequencies --  3053.0978              3056.3239              3042.9078
 Red. masses --    99.0000                99.0000                99.0000
 Frc consts  --    99.0000                99.0000                99.0000
 IR Inten    --    99.0000                99.0000                99.0000
 Raman Activ --     0.0000                 0.0000                 0.0000
 Depolar     --     0.0000                 0.0000                 0.0000
 Atom AN      X      Y      Z        X      Y      Z        X      Y      Z
   1   6     0.00   0.00  -0.00    -0.00   0.00   0.00    -0.01  -0.00  -0.00
   2   8    -0.00   0.00   0.00     0.00  -0.00  -0.00     0.00  -0.00   0.00
   3   8     0.00   0.00   0.00     0.00  -0.00  -0.00     0.00  -0.00   0.00
   4   6     0.00   0.00  -0.00    -0.00  -0.00   0.00    -0.18  -0.00  -0.00
   5   1    -0.01   0.00   0.01     0.01  -0.00  -0.02     0.37  -0.07  -0.56
   6   1    -0.01   0.00  -0.01     0.01  -0.00   0.02     0.38  -0.07   0.57
   7   1     0.01  -0.01  -0.00    -0.01   0.02   0.00    -0.10   0.15  -0.00
   8   6     0.01  -0.01  -0.00    -0.02  -0.00   0.00    -0.00   0.00   0.00
   9   1    -0.01   0.00  -0.02     0.02  -0.00   0.02     0.00   0.00   0.00
  10   1    -0.01   0.00   0.02     0.02  -0.00  -0.03     0.00   0.00  -0.00
  11   6     0.11  -0.10  -0.00    -0.23  -0.17   0.00     0.01   0.00   0.00
  12   1     0.30   0.37  -0.00     0.51   0.67   0.00    -0.01  -0.01   0.00
  13   1    -0.34   0.00  -0.50     0.16  -0.03   0.27    -0.01   0.00  -0.02
  14   1    -0.35   0.00   0.51     0.16  -0.03  -0.28    -0.01   0.00   0.02
                     34                     35                     36
                        a                      a                      a 
 Frequencies --  1402.0025              1366.1084              3071.0009
 Red. masses --    99.0000                99.0000                99.0000
 Frc consts  --    99.0000                99.0000                99.0000
 IR Inten    --    99.0000                99.0000                99.0000
 Raman Activ --     0.0000                 0.0000                 0.0000
 Depolar     --     0.0000                 0.0000                 0.0000
 Atom AN      X      Y      Z        X      Y      Z        X      Y      Z
   1   6     0.01   0.03  -0.00    -0.01  -0.07   0.00     0.01  -0.01  -0.00
   2   8    -0.00  -0.00   0.00    -0.03   0.01  -0.00    -0.00   0.00   0.00
   3   8    -0.03  -0.03  -0.00     0.01   0.01   0.00    -0.00   0.00  -0.00
   4   6    -0.02  -0.01  -0.00     0.34   0.31  -0.00     0.15  -0.23  -0.00
   5   1     0.02   0.00   0.01    -0.30  -0.37  -0.20    -0.05  -0.02   0.10
   6   1     0.02   0.01  -0.01    -0.30  -0.37   0.20    -0.05  -0.02  -0.10
   7   1     0.00   0.00   0.00    -0.44  -0.20   0.00    -0.43   0.85   0.00
   8   6     0.02  -0.10   0.00    -0.01   0.06  -0.00     0.00   0.00   0.00
   9   1     0.05   0.11  -0.02     0.00  -0.06  -0.00    -0.00  -0.00  -0.00
  10   1     0.05   0.11   0.02     0.00  -0.06   0.00    -0.00  -0.00   0.00
  11   6    -0.20   0.40   0.00    -0.02   0.01  -0.00     0.01   0.00  -0.00
  12   1     0.43  -0.29  -0.00     0.03  -0.02   0.00    -0.01  -0.01   0.00
  13   1     0.11  -0.46  -0.11     0.01  -0.02  -0.01    -0.01   0.00  -0.01
  14   1     0.11  -0.46   0.11     0.01  -0.02   0.01    -0.01   0.00   0.01
