 
        ______________________________________
       |                                      |
       |           ==================         |
       |                 x T B                |
       |           ==================         |
       |               S. Grimme              |
       |        Universitaet Bonn, MCTC       |
       |         2015-18, Version 5.8.1       |
       |      Sun May  6 11:39:08 CEST 2018   |
       |______________________________________|
 
        This code comes without any warranty
        for non-commercial, academia use only.
        Preliminary GFN2 test version.
        Test license to: Dow Chemical Company
        Cite GFN-xTB work as:
        S. Grimme, C. Bannwarth, P. Shushkov
        JCTC, 13 (2017) 1989-2009
        for GFN2:
        C. Bannwarth, S. Ehlert, S. Grimme
        to be published.
        sTDA-xTB:
        S. Grimme  &  C. Bannwarth, JCP 145 (2016) 054103
        in the mass-spec context additionally:
        V. Asgeirsson, C.Bauer, S. Grimme, Chem. Sci. 8 (2017) 4879
 
        with help from
        P. Shushkov, G. Brandenburg, S. Dohm, J. Pisarek,
        F. März, M. Checinski, S. Ehrlich, S. Spicher, 
        P. Pracht, E. Caldeweyher, S. Ehlert, and C. Bannwarth.
 
        usage        :
        xtb <coord_file> [options]
        where <coord_file> is a valid file of TM)
        (*coord, Bohr) or xmol (*xyz, Angstroem)
        format.

        options:
        -chrg <int>   : molecular charge
        -uhf  <int>   : # of unpaired electrons(=2*S)
        -nox          : skip second, extended part in sTDA-xTB
        -pop          : do population analysis
                      : (default for -nox)
        -mowr <real>  : cut MO write above (def.3 Eh)
        -molden       : write formatted molden file
        -parx <file>  : read parameters for sTDA-xTB
                        calc (def:~/.param_stda2.xtb)
        -parv <file>  : read parameters for vTB part in
                        sTDA-xTB (def: ~/.param_stda1.xtb)
        -xtemp <real> : el. temp for xTB (def. 0 K)
        -etemp <real> : el. temp for GFN (def. 300 K)
        -fod          : calculate the FOD and write
                        molden.input file with
                        appropriate occupations
                        for plotting. Def. T=12500 K
 
        -gfn1         : use GFN-xTB
        -gfn2         : use GFN2-xTB
        -gfn2d3       : GFN2-xTB with D3 instead of D4
        -grad         : GFNn-xTB gradient
        -acc <real>   : GFNn-xTB accuracy (def. 1.0)
        -opt [level]  : optimize at GFNn-xTB
                      : level=crude,vloose,loose,
                      :       tight,vtight
        -hess         : compute Hessian at GFNn-xTB
        -ohess        : optimize and compute Hessian
        -omd          : optimize and do MD
        -siman        : conformational search
        -screen       : opt. loop over ensemble
        -gmd          : annealed MD for GMD procedure
        -modef        : vib mode following
        -gbsa [string1] [string2]
                        use GBSA implicit solvent
                        for solvent [string1] and
                        solvation state [string2]=
                        reference, bar1M (default=1M)
        additional GFN/opt/MD/siman options read from
        $XTBHOME/.xtbrc or $set in coordinate file
 
       spin and charge state information can be on:
       <.CHRG> (charge) and <.UHF> (=nalpha-nbeta)
       -uhf and -chrg override the file info.
       useful machine settings:
       setenv MKL_NUM_THREADS <NCORE_ON_YOUR_MACHINE>
       setenv OMP_STACKSIZE 500m
       limit stacksize unlimited
 
       total energies in Eh, gaps/HL energies in eV
       please read REVISION and HOWTO files carefully
          72  days left until this code expires
 =============================
  # OMP threads =           2
 =============================
 
 xtbhome directory:/home/ua25450/dftb/
 
 argument            1 :-ohess
 
 name of molecule           :
 comment line               :
 number of atoms            :    26
 number of electrons        :    50
 charge                     :  0
 spin                       : 0.0
 first test random number   :  0.8292
 
 
 -----------------------------------------
  G F N (Geometry, Frequency, Non-covalent)
        parametrization, gfnver=           3
     D4 dispersion model
 /home/ua25450/dftb/.param_gfn2.xtb
 -----------------------------------------
      method parameters     
 k(s)        :  1.8500
 k(p)        :  2.2300
 k(d)        :  2.2300
 k(f)        :  2.0000
 kEN (H0ij)  : -2.0000
 D3 a1       :  0.5200
 D3 a2       :  5.0000
 D3 s8       :  2.7000
 D3atm       :  5.0000
 alphaj      :  2.0000
 
     -------------------------
     ! NO SOLVENT MODEL USED !
     -------------------------
 
 doing EN charges ...
 sum q :  0.4440892D-15
 point charge moment (au)
     X       Y       Z   
   0.0002  -0.0040   0.0020  total (Debye):    0.011
 
            Z     q(EN)     CN     RAES       Cart. coordinates
     1  C   4.0   -0.13    4.02    3.65    -5.14678    -0.54751    -0.13154
     2  H   1.0    0.04    1.00    1.43    -4.40878    -2.46562    -0.07555
     3  H   1.0    0.04    1.00    1.43    -4.41028     0.38184    -1.81037
     4  H   1.0    0.04    1.00    1.43    -7.19421    -0.64935    -0.29130
     5  C   4.0   -0.09    4.06    3.72    -4.39078     0.89421     2.24379
     6  H   1.0    0.04    1.01    1.43    -5.11690     2.82391     2.13470
     7  C   4.0   -0.09    4.12    3.84    -5.39876    -0.36873     4.63433
     8  H   1.0    0.04    1.01    1.43    -7.45823    -0.47749     4.52901
     9  H   1.0    0.04    1.01    1.43    -4.67869    -2.30168     4.73636
    10  C   4.0   -0.09    4.12    3.83    -4.64180     1.06089     7.02344
    11  H   1.0    0.04    1.01    1.43    -2.58209     1.15258     7.13865
    12  H   1.0    0.05    1.01    1.43    -5.35053     2.99377     6.89869
    13  H   1.0    0.04    1.01    1.43    -2.33193     1.00830     2.35040
    14  C   4.0   -0.09    4.11    3.82    -5.67198    -0.20614     9.40339
    15  H   1.0    0.04    1.01    1.43    -5.07688    -2.18434     9.40665
    16  H   1.0    0.04    1.01    1.43    -7.73610    -0.18007     9.35124
    17  C   4.0   -0.09    4.11    3.83    -4.76380     1.03053    11.85154
    18  H   1.0    0.04    1.01    1.43    -5.35949    -0.14471    13.44275
    19  H   1.0    0.04    1.01    1.43    -2.69956     1.08726    11.86089
    20  C   4.0   -0.09    4.06    3.72    -5.78969     3.69915    12.24702
    21  H   1.0    0.04    1.01    1.43    -5.08445     4.94445    10.76232
    22  H   1.0    0.04    1.01    1.43    -7.85002     3.66224    12.11451
    23  C   4.0   -0.13    4.02    3.65    -5.01581     4.76041    14.81003
    24  H   1.0    0.04    1.00    1.43    -2.96697     4.82092    14.97583
    25  H   1.0    0.04    1.00    1.43    -5.74239     6.66757    15.05518
    26  H   1.0    0.04    1.00    1.43    -5.75112     3.58649    16.33030
 
  Z AO/shell   Hii/eV     exponent
  1     Wed Apr 25 08:07:45 CEST 2018   EN: 2.200 GM2: 0.406  GM3: 0.0800  RAES: 1.40
     1s    -10.707211    1.230000
  6     Wed Apr 25 08:07:45 CEST 2018   EN: 2.550 GM2: 0.538  GM3: 0.1500  RAES: 3.00
     2s    -13.970922    2.096432
     2p    -10.063292    1.800000
 
Refinement of some symmetry elements was terminated before convergence was reached.
Some symmetry elements may remain unidentified.
Molecule has no symmetry elements
It seems to be the C1 point group
c1  symmetry found (for desy threshold:  0.10E+00) used in thermo
 no old-style atom pair restraing (fixing) potential
 
             =======================================
             |                                     |
             |        S C C  calculation           |
             |                                     |
             =======================================
 #proc     :            2
 Ncao      :           50
 Nao       :           50
 Nel       :           50
 T(el)     :   300.0
 intcut    :    25.0
 scfconv   :  0.100E-05
   qconv   :  0.100E-03
 intneglect:  0.100E-07
 broydamp  :      0.400
 Nshell    :           34
 iter      E             dE          RMSdq      gap      omega  full diag
   1    -26.7093057 -0.267093E+02  0.212E+00   12.80       0.0  T
   2    -26.7183297 -0.902398E-02  0.130E+00   12.73       1.0  T
   3    -26.7190366 -0.706940E-03  0.221E-01   12.75       1.0  T
   4    -26.7190911 -0.545043E-04  0.809E-02   12.76       1.0  T
   5    -26.7190913 -0.231128E-06  0.304E-02   12.76       1.0  T
   6    -26.7190935 -0.214043E-05  0.158E-03   12.76      12.4  T
   7    -26.7190935 -0.121504E-07  0.818E-04   12.76      24.0  T
   8    -26.7190935 -0.726853E-09  0.146E-04   12.76     134.4  T
speedup  1.00
cpu  time for SCC    0.01 s
wall time for SCC    0.01 s

          eigenvalues
 #    :          13         14         15         16         17         18         19         20
 occ. :        2.000      2.000      2.000      2.000      2.000      2.000      2.000      2.000
 eps  :       -13.224    -13.068    -12.864    -12.550    -12.339    -12.132    -12.024    -11.837
 #    :          21         22         23         24         25         26         27         28
 occ. :        2.000      2.000      2.000      2.000      2.000      0.000      0.000      0.000
 eps  :       -11.675    -11.483    -11.431    -11.322    -11.224      1.539      2.358      3.055
 #    :          29         30         31         32         33         34         35         36
 occ. :        0.000      0.000      0.000      0.000      0.000      0.000      0.000      0.000
 eps  :         3.163      3.525      3.647      3.904      4.131      4.283      4.475      4.853
 

   #   Z            q   n(s)   n(p)   n(d)      C6AA      α(0)    relVol
   1   6 C     -0.102  1.037  3.065  0.000    22.646     6.807     0.551
   2   1 H      0.033  0.967  0.000  0.000     2.539     2.492     0.493
   3   1 H      0.032  0.968  0.000  0.000     2.548     2.496     0.494
   4   1 H      0.033  0.967  0.000  0.000     2.539     2.492     0.493
   5   6 C     -0.053  1.048  3.005  0.000    21.604     6.629     0.537
   6   1 H      0.028  0.972  0.000  0.000     2.609     2.525     0.500
   7   6 C     -0.059  1.052  3.006  0.000    21.683     6.634     0.537
   8   1 H      0.029  0.971  0.000  0.000     2.595     2.519     0.498
   9   1 H      0.029  0.971  0.000  0.000     2.599     2.521     0.499
  10   6 C     -0.059  1.051  3.007  0.000    21.680     6.634     0.537
  11   1 H      0.029  0.971  0.000  0.000     2.598     2.520     0.499
  12   1 H      0.030  0.970  0.000  0.000     2.579     2.511     0.497
  13   1 H      0.028  0.972  0.000  0.000     2.607     2.524     0.499
  14   6 C     -0.058  1.052  3.006  0.000    21.671     6.633     0.537
  15   1 H      0.028  0.972  0.000  0.000     2.607     2.525     0.500
  16   1 H      0.029  0.971  0.000  0.000     2.600     2.521     0.499
  17   6 C     -0.059  1.052  3.007  0.000    21.683     6.635     0.537
  18   1 H      0.029  0.971  0.000  0.000     2.592     2.517     0.498
  19   1 H      0.030  0.970  0.000  0.000     2.585     2.514     0.497
  20   6 C     -0.053  1.047  3.006  0.000    21.613     6.631     0.537
  21   1 H      0.030  0.970  0.000  0.000     2.576     2.510     0.497
  22   1 H      0.029  0.971  0.000  0.000     2.599     2.521     0.499
  23   6 C     -0.102  1.037  3.065  0.000    22.644     6.806     0.551
  24   1 H      0.033  0.967  0.000  0.000     2.546     2.495     0.494
  25   1 H      0.032  0.968  0.000  0.000     2.553     2.499     0.494
  26   1 H      0.032  0.968  0.000  0.000     2.553     2.498     0.494

 Mol. C6AA /au*bohr^6 :       4388.306913
 Mol. C8AA /au*bohr^6 :      90859.498999
 Mol. a(0) /au        :         98.609495

 
 Wiberg/Mayer (AO) data. WBOs > 0.1 written file <wbo>
 largest (>0.05) Wiberg bond orders for each atom
           total WBO             WBO to atom ...
     1  C   3.997    C    5 1.019    H    4 0.988    H    2 0.988    H    3 0.988
     2  H   0.999    C    1 0.988
     3  H   0.999    C    1 0.988
     4  H   0.999    C    1 0.988
     5  C   3.998    C    1 1.019    C    7 1.008    H   13 0.979    H    6 0.979
     6  H   0.999    C    5 0.979
     7  C   3.997    C    5 1.008    C   10 1.007    H    8 0.978    H    9 0.977
     8  H   0.999    C    7 0.978
     9  H   0.999    C    7 0.977
    10  C   3.998    C   14 1.008    C    7 1.007    H   11 0.977    H   12 0.976
    11  H   0.999    C   10 0.977
    12  H   0.999    C   10 0.976
    13  H   0.999    C    5 0.979
    14  C   3.997    C   10 1.008    C   17 1.006    H   16 0.977    H   15 0.977
    15  H   0.999    C   14 0.977
    16  H   0.999    C   14 0.977
    17  C   3.997    C   20 1.009    C   14 1.006    H   19 0.977    H   18 0.977
    18  H   0.999    C   17 0.977
    19  H   0.999    C   17 0.977
    20  C   3.998    C   23 1.019    C   17 1.009    H   22 0.978    H   21 0.977
    21  H   0.999    C   20 0.977
    22  H   0.999    C   20 0.978
    23  C   3.997    C   20 1.019    H   24 0.988    H   26 0.988    H   25 0.988
    24  H   0.999    C   23 0.988
    25  H   0.999    C   23 0.988
    26  H   0.999    C   23 0.988
 
molecular dipole:
                 x           y           z       tot (Debye)
 q only:        0.000       0.002      -0.000
   full:        0.001      -0.001       0.001       0.002
molecular quadrupole (traceless):
                xx          xy          yy          xz          yz          zz
 q only:       -0.278       0.078      -0.017       0.089       0.162       0.294
  q+dip:        1.516      -0.453       0.219      -0.263      -0.832      -1.735
   full:        0.638      -0.197       0.087      -0.098      -0.353      -0.725
 SCC converged in            8  cycles
 
SCC energy    :     -26.7190935
rep           :       0.3973709
ES            :       0.0048372
AES           :       0.0086794
AXC           :       0.0163651
disp          :      -0.0151877
XB            :       0.0000000
fix           :       0.0000000
total E       :     -26.3217738
atomizationE  :       6.2560561     3925.73
(atE without considerung molecular charge,
 total energy contains solvation terms)
H-L gap (eV)  :         12.7633
 
             =======================================
             |                                     |
             |    Approximate Normal Coordinate    |
             |   Rational Function Optimization    |
             |                                     |
             =======================================
Ref. for RF algo: F.Eckert, P.Pulay, H.-J.Werner
                  J.Comput.Chem. 18 (1997) 1473.
ANC idea implemented by S. Grimme in the 2000ers (unpublished)
restraining potential by S. Ehrlich.
dumping coords to <xtbopt.coord> and <xtbopt.log
 optlevel               1
 Maxcycle             200
 Maxmicro              20
 Econv         1.000000000000000E-006
 Gconv         8.000000000000000E-004
 Maxdispl       1.00000000000000     
 Hlow          1.000000000000000E-002
 S6             20.0000000000000     
 Nvar               72

generating ANC from model Hessian ...
 Shifting diagonal of input Hessian by   9.038745523752322E-003
 Lowest  eigenvalues of input Hessian
   -0.000000   -0.000000    0.000000    0.000000    0.000000    0.000000
    0.010000    0.010183    0.011176    0.012692    0.013332    0.014405
    0.017491    0.018514    0.019765    0.020722    0.023000    0.026356
 Highest eigenvalues
    1.203600    1.215291    1.225533    1.243040    1.277285    1.313495
 
cpu  time for ANC gen    0.01 s
wall time for ANC gen    0.01 s
................................................................................
.............................. CYCLE    1 ......................................
................................................................................
  q data taken from xtbrestart
  CAMM data taken from xtbrestart
   1    -26.7190935 -0.267191E+02  0.604E-05   12.76       0.0  T
   2    -26.7190935 -0.406075E-11  0.335E-05   12.76     585.4  T
   3    -26.7190935 -0.660805E-12  0.665E-06   12.76    2951.2  T
speedup  1.00
cpu  time for SCC    0.01 s
wall time for SCC    0.01 s
speedup  1.00
cpu  time for grad    0.01 s
wall time for grad    0.01 s
 E :    -26.32177376  G :  0.000383    pred/act E change:  0.000D+00  0.648D-09
Maxdispl :   0.0024   ||displ|| :   0.0041   Lambda : -0.573D-06
Largest |displ|/coords:  0.0024 (   6)  0.0020 (   8)  0.0016 (   3)
................................................................................
.............................. CYCLE    2 ......................................
................................................................................
   1    -26.7192106 -0.267192E+02  0.200E-03   12.76       0.0  T
   2    -26.7192106 -0.147444E-08  0.118E-03   12.76      16.6  T
   3    -26.7192106 -0.623288E-10  0.990E-05   12.76     198.1  T
   4    -26.7192106 -0.256541E-10  0.274E-05   12.76     715.8  T
speedup  1.00
cpu  time for SCC    0.01 s
wall time for SCC    0.01 s
speedup  1.00
cpu  time for grad    0.01 s
wall time for grad    0.01 s
 E :    -26.32177417  G :  0.000134    pred/act E change:  0.000D+00 -0.412D-06
Maxdispl :   0.0046   ||displ|| :   0.0075   Lambda : -0.428D-06
Largest |displ|/coords:  0.0046 (   6)  0.0033 (   3)  0.0033 (   8)
ancopt converged in          2 cycles
total energy gain (kcal):     -0.0003
================
 final structure:
================
    26
        -26.32177417
C          -2.72360435566173   -0.28967058418353   -0.06957962816871
H          -2.33302634034054   -1.30468289181351   -0.04007185297741
H          -2.33392273527259    0.20229525912889   -0.95786470295790
H          -3.80696336365891   -0.34346839549277   -0.15420380832421
C          -2.32352048082932    0.47308333073136    1.18740083513520
H          -2.70774397263239    1.49423155093953    1.12968009472489
C          -2.85692348125410   -0.19518622012005    2.45238182467388
H          -3.94679015666382   -0.25253587421034    2.39683388077403
H          -2.47591204788875   -1.21805256138492    2.50644992070007
C          -2.45611235918033    0.56131407529399    3.71664164122943
H          -1.36606731949240    0.60929763643519    3.77755671838044
H          -2.83083403060548    1.58423227639463    3.65055249806554
H          -1.23406006561001    0.53324122051853    1.24383294526363
C          -3.00152215668218   -0.10892568998133    4.97603965394505
H          -2.68707495852861   -1.15590620724747    4.97768766693415
H          -4.09381639259947   -0.09448589078509    4.94850961559672
C          -2.52068634102889    0.54529214939158    6.27155538104047
H          -2.83593677308870   -0.07675355851976    7.11343878630168
H          -1.42836239033121    0.57535250682017    6.27629618699210
C          -3.06373340126370    1.95734549973040    6.48091075694656
H          -2.69065960169434    2.61644563552715    5.69541029855476
H          -4.15389953317106    1.93753725909329    6.41075314034288
C          -2.65456068760290    2.51923009532163    7.83716883056915
H          -1.57050951042154    2.55183277895076    7.92440214241995
H          -3.03948934682346    3.52820477311000    7.96707087111533
H          -3.04270650767416    1.89780886635212    8.64167439272238
 
 Bond Distances (Angstroems)
 ---------------------------
C1-H2=1.0880         C1-H3=1.0876         C1-H4=1.0880         C1-C5=1.5238         H2-C1=1.0880         H3-C1=1.0876         
H4-C1=1.0880         C5-C1=1.5238         C5-H6=1.0926         C5-C7=1.5269         C5-H13=1.0926        H6-C5=1.0926         
C7-C5=1.5269         C7-H8=1.0928         C7-H9=1.0929         C7-C10=1.5269        H8-C7=1.0928         H9-C7=1.0929         
C10-C7=1.5269        C10-H11=1.0928       C10-H12=1.0914       C10-C14=1.5273       H11-C10=1.0928       H12-C10=1.0914       
H13-C5=1.0926        C14-C10=1.5273       C14-H15=1.0932       C14-H16=1.0927       C14-C17=1.5289       H15-C14=1.0932       
H16-C14=1.0927       C17-C14=1.5289       C17-H18=1.0932       C17-H19=1.0927       C17-C20=1.5273       H18-C17=1.0932       
H19-C17=1.0927       C20-C17=1.5273       C20-H21=1.0911       C20-H22=1.0926       C20-C23=1.5240       H21-C20=1.0911       
H22-C20=1.0926       C23-C20=1.5240       C23-H24=1.0880       C23-H25=1.0877       C23-H26=1.0881       H24-C23=1.0880       
H25-C23=1.0877       H26-C23=1.0881       
 C  H  Rav=1.0910 sigma=0.0022  Rmin=1.0876  Rmax=1.0932    18
 C  C  Rav=1.5264 sigma=0.0017  Rmin=1.5238  Rmax=1.5289     7
 
 selected bond angles (degree)
 --------------------
H3-C1-H2=108.39                H4-C1-H2=108.27                H4-C1-H3=108.40                C5-C1-H2=110.51                
C5-C1-H3=110.68                C5-C1-H4=110.51                H6-C5-C1=109.39                C7-C5-C1=111.88                
C7-C5-H6=109.27                H13-C5-C1=109.39               H13-C5-H6=107.57               H13-C5-C7=109.25               
H8-C7-C5=109.22                H9-C7-C5=109.20                H9-C7-H8=107.52                C10-C7-C5=112.18               
C10-C7-H8=109.26               C10-C7-H9=109.34               H11-C10-C7=109.25              H12-C10-C7=108.91              
H12-C10-H11=107.74             C14-C10-C7=111.81              C14-C10-H11=109.24             C14-C10-H12=109.79             
 
 selected dihedral angles (degree)
 ---------------------------------
H6-C5-C1-H2=178.89            H6-C5-C1-H3= 58.80            H6-C5-C1-H4=298.71            C7-C5-C1-H2=300.10            
C7-C5-C1-H3=180.02            C7-C5-C1-H4= 59.92            H13-C5-C1-H2= 61.30           H13-C5-C1-H3=301.21           
H13-C5-C1-H4=181.11           H8-C7-C5-C1=301.11            H8-C7-C5-H6= 62.40            H8-C7-C5-H13=179.84           
H9-C7-C5-C1= 58.44            H9-C7-C5-H6=179.72            H9-C7-C5-H13=297.17           C10-C7-C5-C1=179.82           
C10-C7-C5-H6=301.10           C10-C7-C5-H13= 58.54          H11-C10-C7-C5=300.67          H11-C10-C7-H8=179.40          
H11-C10-C7-H9= 61.97          H12-C10-C7-C5= 58.11          H12-C10-C7-H8=296.84          H12-C10-C7-H9=179.41          
C14-C10-C7-C5=179.62          C14-C10-C7-H8= 58.35          C14-C10-C7-H9=300.92          
 
             =======================================
             |                                     |
             |        S C C  calculation           |
             |                                     |
             =======================================
 #proc     :            2
 Ncao      :           50
 Nao       :           50
 Nel       :           50
 T(el)     :   300.0
 intcut    :    25.0
 scfconv   :  0.100E-05
   qconv   :  0.100E-03
 intneglect:  0.100E-07
 broydamp  :      0.400
 Nshell    :           34
 iter      E             dE          RMSdq      gap      omega  full diag
   1    -26.7192106 -0.267192E+02  0.801E-06   12.76       0.0  T
   2    -26.7192106 -0.216716E-12  0.422E-06   12.76    4648.1  T
   3    -26.7192106 -0.355271E-13  0.186E-06   12.76   10537.6  T
speedup  1.00
cpu  time for SCC    0.01 s
wall time for SCC    0.01 s

          eigenvalues
 #    :          13         14         15         16         17         18         19         20
 occ. :        2.000      2.000      2.000      2.000      2.000      2.000      2.000      2.000
 eps  :       -13.224    -13.068    -12.864    -12.551    -12.339    -12.132    -12.024    -11.837
 #    :          21         22         23         24         25         26         27         28
 occ. :        2.000      2.000      2.000      2.000      2.000      0.000      0.000      0.000
 eps  :       -11.674    -11.483    -11.431    -11.323    -11.224      1.539      2.358      3.056
 #    :          29         30         31         32         33         34         35         36
 occ. :        0.000      0.000      0.000      0.000      0.000      0.000      0.000      0.000
 eps  :         3.164      3.528      3.649      3.905      4.133      4.285      4.476      4.855
 

   #   Z            q   n(s)   n(p)   n(d)      C6AA      α(0)    relVol
   1   6 C     -0.102  1.037  3.065  0.000    22.646     6.807     0.551
   2   1 H      0.033  0.967  0.000  0.000     2.539     2.492     0.493
   3   1 H      0.032  0.968  0.000  0.000     2.548     2.496     0.494
   4   1 H      0.033  0.967  0.000  0.000     2.539     2.492     0.493
   5   6 C     -0.053  1.048  3.005  0.000    21.604     6.629     0.537
   6   1 H      0.028  0.972  0.000  0.000     2.609     2.525     0.500
   7   6 C     -0.059  1.052  3.007  0.000    21.683     6.634     0.537
   8   1 H      0.029  0.971  0.000  0.000     2.596     2.519     0.498
   9   1 H      0.029  0.971  0.000  0.000     2.599     2.521     0.499
  10   6 C     -0.059  1.051  3.007  0.000    21.680     6.634     0.537
  11   1 H      0.029  0.971  0.000  0.000     2.598     2.520     0.499
  12   1 H      0.030  0.970  0.000  0.000     2.579     2.511     0.497
  13   1 H      0.028  0.972  0.000  0.000     2.606     2.524     0.499
  14   6 C     -0.058  1.052  3.006  0.000    21.671     6.633     0.537
  15   1 H      0.028  0.972  0.000  0.000     2.607     2.525     0.500
  16   1 H      0.029  0.971  0.000  0.000     2.600     2.521     0.499
  17   6 C     -0.059  1.052  3.007  0.000    21.683     6.635     0.537
  18   1 H      0.029  0.971  0.000  0.000     2.592     2.517     0.498
  19   1 H      0.030  0.970  0.000  0.000     2.585     2.514     0.497
  20   6 C     -0.053  1.047  3.006  0.000    21.613     6.631     0.537
  21   1 H      0.030  0.970  0.000  0.000     2.576     2.509     0.497
  22   1 H      0.029  0.971  0.000  0.000     2.598     2.520     0.499
  23   6 C     -0.102  1.037  3.065  0.000    22.645     6.806     0.551
  24   1 H      0.033  0.967  0.000  0.000     2.546     2.495     0.494
  25   1 H      0.032  0.968  0.000  0.000     2.553     2.499     0.494
  26   1 H      0.032  0.968  0.000  0.000     2.552     2.498     0.494

 Mol. C6AA /au*bohr^6 :       4388.262777
 Mol. C8AA /au*bohr^6 :      90859.037207
 Mol. a(0) /au        :         98.608883

 
 Wiberg/Mayer (AO) data. WBOs > 0.1 written file <wbo>
 largest (>0.05) Wiberg bond orders for each atom
           total WBO             WBO to atom ...
     1  C   3.997    C    5 1.019    H    4 0.988    H    2 0.988    H    3 0.988
     2  H   0.999    C    1 0.988
     3  H   0.999    C    1 0.988
     4  H   0.999    C    1 0.988
     5  C   3.998    C    1 1.019    C    7 1.008    H   13 0.979    H    6 0.979
     6  H   0.999    C    5 0.979
     7  C   3.997    C    5 1.008    C   10 1.007    H    8 0.978    H    9 0.977
     8  H   0.999    C    7 0.978
     9  H   0.999    C    7 0.977
    10  C   3.998    C   14 1.008    C    7 1.007    H   11 0.977    H   12 0.976
    11  H   0.999    C   10 0.977
    12  H   0.999    C   10 0.976
    13  H   0.999    C    5 0.979
    14  C   3.997    C   10 1.008    C   17 1.006    H   16 0.977    H   15 0.977
    15  H   0.999    C   14 0.977
    16  H   0.999    C   14 0.977
    17  C   3.997    C   20 1.009    C   14 1.006    H   19 0.977    H   18 0.977
    18  H   0.999    C   17 0.977
    19  H   0.999    C   17 0.977
    20  C   3.998    C   23 1.019    C   17 1.009    H   22 0.978    H   21 0.977
    21  H   0.999    C   20 0.977
    22  H   0.999    C   20 0.978
    23  C   3.997    C   20 1.019    H   24 0.988    H   26 0.988    H   25 0.988
    24  H   0.999    C   23 0.988
    25  H   0.999    C   23 0.988
    26  H   0.999    C   23 0.988
 
molecular dipole:
                 x           y           z       tot (Debye)
 q only:        0.000       0.002      -0.000
   full:        0.000      -0.001       0.000       0.002
molecular quadrupole (traceless):
                xx          xy          yy          xz          yz          zz
 q only:       -0.278       0.078      -0.017       0.089       0.162       0.295
  q+dip:        1.515      -0.455       0.220      -0.262      -0.833      -1.736
   full:        0.638      -0.198       0.088      -0.097      -0.353      -0.725
 SCC converged in            3  cycles
 
SCC energy    :     -26.7192106
rep           :       0.3974876
ES            :       0.0048395
AES           :       0.0086753
AXC           :       0.0163619
disp          :      -0.0151877
XB            :       0.0000000
fix           :       0.0000000
total E       :     -26.3217742
atomizationE  :       6.2560566     3925.74
(atE without considerung molecular charge,
 total energy contains solvation terms)
H-L gap (eV)  :         12.7636
 !!!!!!!!!!!!!!!!!!!!!!!!!!!!!!!!!!!
 ! Note: the input coordinates are !
 ! NOT overwritten. The optimized  !
 ! ones are on file <xtbopt.coord> !
 ! (or on <xtbopt.xyz> if it was a !
 ! xyz file)                       !
 !!!!!!!!!!!!!!!!!!!!!!!!!!!!!!!!!!!
 
Refinement of some symmetry elements was terminated before convergence was reached.
Some symmetry elements may remain unidentified.
Molecule has no symmetry elements
It seems to be the C1 point group
c1  symmetry found (for desy threshold:  0.10E+00) used in thermo
  q data taken from xtbrestart
  CAMM data taken from xtbrestart
 
             =======================================
             |                                     |
             |         Numerical Hessian           |
             |                                     |
             =======================================
step length          :   0.00500
SCC accuracy         :   0.30000
Hessian scale factor :   1.00000
frozen atoms in %    :   0.00000    0
RMS gradient         :   0.00013
estimated CPU  time      0.05 min
estimated wall time      0.05 min
 
 writing file <hessian>.
 
 projected vibrational frequencies (cm-1)
eig.   :       -0.00    -0.00    -0.00     0.00     0.00     0.00
eig.   :       43.94    61.90    69.81   107.90   122.00   160.92
eig.   :      229.48   233.71   260.75   279.60   347.69   423.07
eig.   :      521.47   767.50   779.26   796.39   856.14   888.89
eig.   :      916.15   943.12   975.33  1003.43  1042.66  1076.34
eig.   :     1087.89  1099.73  1117.92  1130.48  1148.57  1181.51
eig.   :     1215.68  1241.68  1258.80  1267.69  1285.65  1287.69
eig.   :     1292.37  1312.26  1324.88  1367.83  1374.98  1379.63
eig.   :     1416.30  1416.63  1491.63  1492.92  1496.66  1498.30
eig.   :     1500.51  1503.45  1505.05  1505.79  1508.22  1508.49
eig.   :     2954.27  2955.78  2956.04  2964.54  2968.77  2972.13
eig.   :     2972.63  2976.28  2978.83  2981.38  2987.45  2993.66
eig.   :     3027.96  3029.12  3030.57  3031.47  3035.85  3036.66
 reduced masses (amu)
   1:  9.50   2:  8.77   3: 10.00   4: 10.06   5:  8.67   6: 10.14   7:  7.22   8:  5.73
   9:  8.59  10:  7.94  11:  6.71  12:  8.36  13:  2.86  14:  2.17  15:  6.59  16:  8.64
  17:  8.94  18:  9.13  19:  8.48  20:  1.97  21:  2.14  22:  2.38  23:  3.48  24:  4.29
  25:  5.20  26:  5.94  27:  2.76  28:  6.13  29:  3.00  30: 10.16  31:  8.77  32:  7.51
  33:  7.20  34:  8.00  35:  8.04  36:  6.94  37:  5.35  38:  4.10  39:  3.47  40:  2.97
  41:  2.12  42:  2.19  43:  2.45  44:  3.32  45:  3.72  46:  4.71  47:  5.13  48:  5.62
  49:  3.18  50:  3.17  51:  1.90  52:  1.91  53:  1.96  54:  1.87  55:  1.96  56:  1.80
  57:  1.53  58:  1.53  59:  1.65  60:  1.64  61:  1.89  62:  1.93  63:  1.91  64:  1.91
  65:  1.74  66:  1.83  67:  1.49  68:  1.49  69:  1.57  70:  1.84  71:  1.54  72:  1.62
  73:  1.95  74:  1.96  75:  1.91  76:  1.92  77:  1.29  78:  1.28
 IR intensities (amu)
   1:  0.16   2:  0.10   3:  0.27   4:  0.26   5:  0.05   6:  0.10   7:  0.05   8:  0.03
   9:  0.02  10:  0.02  11:  0.02  12:  0.03  13:  0.03  14:  0.00  15:  0.03  16:  0.04
  17:  0.01  18:  0.03  19:  0.02  20:  0.05  21:  0.03  22:  0.02  23:  0.03  24:  0.04
  25:  0.06  26:  0.03  27:  0.03  28:  0.06  29:  0.07  30:  0.06  31:  0.05  32:  0.06
  33:  0.08  34:  0.05  35:  0.02  36:  0.02  37:  0.04  38:  0.03  39:  0.02  40:  0.02
  41:  0.02  42:  0.02  43:  0.03  44:  0.05  45:  0.03  46:  0.07  47:  0.01  48:  0.01
  49:  0.03  50:  0.04  51:  0.04  52:  0.02  53:  0.04  54:  0.05  55:  0.05  56:  0.03
  57:  0.03  58:  0.03  59:  0.02  60:  0.02  61:  0.08  62:  0.11  63:  0.11  64:  0.04
  65:  0.16  66:  0.27  67:  0.11  68:  0.16  69:  0.17  70:  0.52  71:  0.30  72:  0.40
  73:  0.29  74:  0.28  75:  0.30  76:  0.29  77:  0.21  78:  0.16
 output can be read by thermo (or use thermo option).
 writing <g98.out> molden fake output.
 recommended (thermochemical) frequency scaling factor: 1.0
                    ==================
                    thermo calculation
                    ==================
Nvib :   72 Nimag : 0  symmetry :   c1  rot number :  1  scale factor : 1.00 sthr :  50.
omega= 43.94     Gvib=    -1.513     Grot=    -1.095     Gused=    -1.251
omega= 61.90     Gvib=    -1.311     Grot=    -0.993     Gused=    -1.216
omega= 69.81     Gvib=    -1.240     Grot=    -0.958     Gused=    -1.181
omega=107.90     Gvib=    -0.986     Grot=    -0.829     Gused=    -0.979
omega=122.00     Gvib=    -0.915     Grot=    -0.792     Gused=    -0.912
omega=160.92     Gvib=    -0.757     Grot=    -0.710     Gused=    -0.757
omega=229.48     Gvib=    -0.561     Grot=    -0.605     Gused=    -0.562
omega=233.71     Gvib=    -0.552     Grot=    -0.600     Gused=    -0.552
omega=260.75     Gvib=    -0.494     Grot=    -0.567     Gused=    -0.494
omega=279.60     Gvib=    -0.458     Grot=    -0.547     Gused=    -0.458
 
   temp. (K)  partition function   enthalpy   heat capacity  entropy
                                   cal/mol     cal/K/mol   cal/K/mol   J/K/mol
 298.15  VIB  0.575E+04             5166.014     32.684     33.102
         ROT  0.609E+06              888.752      2.981     29.449
         INT  0.350E+10             6054.766     35.665     62.550
         TR   0.118E+28             1481.254      4.968     40.096
         TOT                        7536.0201    40.6331   102.6469   429.4730
                     Eh         kcal/mol          kJ/mol 
ZPVE            0.243718         152.936         639.880    
H(0)-H(T)+PV    0.120094E-01     7.53602         31.5306    
H(T)            0.255728         160.472         671.411    
T*S             0.487708E-01     30.6042         128.047    
G(T)            0.206957         129.868         543.364    
    -26.11481715  <=== TOTAL FREE ENERGY in Eh incl. el.,ZPVE,RRHO,solv. parts
 
Eat (element increment corrected) /kcal :  2965.295
        -499.867  <=== HOF(298)/kcal, to be compared to exptl. data
 
 normal mode %tage of torsion character
   1:  0.00   2:  0.00   3:  0.00   4:  0.00   5:  0.00   6:  0.00   7:  0.50   8:  0.50
   9:  0.36  10:  0.57  11:  0.64  12:  0.50  13:  0.79  14:  0.85  15:  0.58  16:  0.24
  17:  0.18  18:  0.13  19:  0.08  20:  0.51  21:  0.49  22:  0.45  23:  0.51  24:  0.42
  25:  0.34  26:  0.25  27:  0.38  28:  0.12  29:  0.37  30:  0.13  31:  0.13  32:  0.16
  33:  0.15  34:  0.07  35:  0.17  36:  0.48  37:  0.39  38:  0.35  39:  0.25  40:  0.17
  41:  0.08  42:  0.17  43:  0.12  44:  0.08  45:  0.11  46:  0.08  47:  0.07  48:  0.06
  49:  0.44  50:  0.02  51:  0.64  52:  0.60  53:  0.66  54:  0.55  55:  0.58  56:  0.60
  57:  0.30  58:  0.93  59:  0.24  60:  0.83  61:  0.33  62:  0.28  63:  0.25  64:  0.13
  65:  0.06  66:  0.02  67:  0.01  68:  0.01  69:  0.02  70:  0.01  71:  0.02  72:  0.03
  73:  0.05  74:  0.10  75:  0.04  76:  0.12  77:  0.00  78:  0.03
 recommended # of modes for mode following           4
 
speedup  0.99
cpu  time for all    2.50 s
wall time for all    2.54 s
