 
        ______________________________________
       |                                      |
       |           ==================         |
       |                 x T B                |
       |           ==================         |
       |               S. Grimme              |
       |        Universitaet Bonn, MCTC       |
       |         2015-18, Version 5.8.1       |
       |      Sun May  6 11:39:08 CEST 2018   |
       |______________________________________|
 
        This code comes without any warranty
        for non-commercial, academia use only.
        Preliminary GFN2 test version.
        Test license to: Dow Chemical Company
        Cite GFN-xTB work as:
        S. Grimme, C. Bannwarth, P. Shushkov
        JCTC, 13 (2017) 1989-2009
        for GFN2:
        C. Bannwarth, S. Ehlert, S. Grimme
        to be published.
        sTDA-xTB:
        S. Grimme  &  C. Bannwarth, JCP 145 (2016) 054103
        in the mass-spec context additionally:
        V. Asgeirsson, C.Bauer, S. Grimme, Chem. Sci. 8 (2017) 4879
 
        with help from
        P. Shushkov, G. Brandenburg, S. Dohm, J. Pisarek,
        F. März, M. Checinski, S. Ehrlich, S. Spicher, 
        P. Pracht, E. Caldeweyher, S. Ehlert, and C. Bannwarth.
 
        usage        :
        xtb <coord_file> [options]
        where <coord_file> is a valid file of TM)
        (*coord, Bohr) or xmol (*xyz, Angstroem)
        format.

        options:
        -chrg <int>   : molecular charge
        -uhf  <int>   : # of unpaired electrons(=2*S)
        -nox          : skip second, extended part in sTDA-xTB
        -pop          : do population analysis
                      : (default for -nox)
        -mowr <real>  : cut MO write above (def.3 Eh)
        -molden       : write formatted molden file
        -parx <file>  : read parameters for sTDA-xTB
                        calc (def:~/.param_stda2.xtb)
        -parv <file>  : read parameters for vTB part in
                        sTDA-xTB (def: ~/.param_stda1.xtb)
        -xtemp <real> : el. temp for xTB (def. 0 K)
        -etemp <real> : el. temp for GFN (def. 300 K)
        -fod          : calculate the FOD and write
                        molden.input file with
                        appropriate occupations
                        for plotting. Def. T=12500 K
 
        -gfn1         : use GFN-xTB
        -gfn2         : use GFN2-xTB
        -gfn2d3       : GFN2-xTB with D3 instead of D4
        -grad         : GFNn-xTB gradient
        -acc <real>   : GFNn-xTB accuracy (def. 1.0)
        -opt [level]  : optimize at GFNn-xTB
                      : level=crude,vloose,loose,
                      :       tight,vtight
        -hess         : compute Hessian at GFNn-xTB
        -ohess        : optimize and compute Hessian
        -omd          : optimize and do MD
        -siman        : conformational search
        -screen       : opt. loop over ensemble
        -gmd          : annealed MD for GMD procedure
        -modef        : vib mode following
        -gbsa [string1] [string2]
                        use GBSA implicit solvent
                        for solvent [string1] and
                        solvation state [string2]=
                        reference, bar1M (default=1M)
        additional GFN/opt/MD/siman options read from
        $XTBHOME/.xtbrc or $set in coordinate file
 
       spin and charge state information can be on:
       <.CHRG> (charge) and <.UHF> (=nalpha-nbeta)
       -uhf and -chrg override the file info.
       useful machine settings:
       setenv MKL_NUM_THREADS <NCORE_ON_YOUR_MACHINE>
       setenv OMP_STACKSIZE 500m
       limit stacksize unlimited
 
       total energies in Eh, gaps/HL energies in eV
       please read REVISION and HOWTO files carefully
          72  days left until this code expires
 =============================
  # OMP threads =           2
 =============================
 
 xtbhome directory:/home/ua25450/dftb/
 
 argument            1 :-ohess
 
 name of molecule           :
 comment line               :
 number of atoms            :    15
 number of electrons        :    32
 charge                     :  0
 spin                       : 0.0
 first test random number   :  0.1413
 
 
 -----------------------------------------
  G F N (Geometry, Frequency, Non-covalent)
        parametrization, gfnver=           3
     D4 dispersion model
 /home/ua25450/dftb/.param_gfn2.xtb
 -----------------------------------------
      method parameters     
 k(s)        :  1.8500
 k(p)        :  2.2300
 k(d)        :  2.2300
 k(f)        :  2.0000
 kEN (H0ij)  : -2.0000
 D3 a1       :  0.5200
 D3 a2       :  5.0000
 D3 s8       :  2.7000
 D3atm       :  5.0000
 alphaj      :  2.0000
 
     -------------------------
     ! NO SOLVENT MODEL USED !
     -------------------------
 
 doing EN charges ...
 sum q :  0.9992007D-15
 point charge moment (au)
     X       Y       Z   
   0.1389   0.2460   0.0150  total (Debye):    0.719
 
            Z     q(EN)     CN     RAES       Cart. coordinates
     1  O   6.0   -0.17    2.02    1.83     0.29219    -1.03343     4.01793
     2  C   4.0   -0.03    4.11    3.82    -0.27259     1.56491     4.03185
     3  H   1.0    0.05    1.00    1.43    -2.33385     1.66943     3.96603
     4  H   1.0    0.04    1.00    1.43     0.48032     2.48132     2.32317
     5  C   4.0   -0.05    4.07    3.75     0.70350     2.95765     6.38288
     6  H   1.0    0.04    1.02    1.43     0.02910     1.93089     8.04912
     7  H   1.0    0.11    1.02    1.43     2.10126    -1.23120     4.06982
     8  C   4.0   -0.13    4.09    3.78    -0.35573     5.63882     6.43588
     9  H   1.0    0.05    1.00    1.43    -2.41022     5.61064     6.44704
    10  H   1.0    0.05    1.00    1.43     0.26995     6.68776     4.78152
    11  C   4.0   -0.13    4.08    3.77     3.59047     3.01674     6.43445
    12  H   1.0    0.04    1.00    1.43     4.37832     1.12026     6.56054
    13  H   1.0    0.04    1.00    1.43     4.32183     3.92477     4.73859
    14  H   1.0    0.05    1.00    1.43     4.24856     4.07632     8.06792
    15  H   1.0    0.05    1.00    1.43     0.28949     6.63185     8.11531
 
  Z AO/shell   Hii/eV     exponent
  1     Wed Apr 25 08:07:45 CEST 2018   EN: 2.200 GM2: 0.406  GM3: 0.0800  RAES: 1.40
     1s    -10.707211    1.230000
  6     Wed Apr 25 08:07:45 CEST 2018   EN: 2.550 GM2: 0.538  GM3: 0.1500  RAES: 3.00
     2s    -13.970922    2.096432
     2p    -10.063292    1.800000
  8     Wed Apr 25 08:07:45 CEST 2018   EN: 3.440 GM2: 0.452  GM3:-0.0517  RAES: 1.80
     2s    -20.229985    2.439742
     2p    -15.503117    2.137023
 
Refinement of some symmetry elements was terminated before convergence was reached.
Some symmetry elements may remain unidentified.
Molecule has no symmetry elements
It seems to be the C1 point group
c1  symmetry found (for desy threshold:  0.10E+00) used in thermo
 no old-style atom pair restraing (fixing) potential
 
             =======================================
             |                                     |
             |        S C C  calculation           |
             |                                     |
             =======================================
 #proc     :            2
 Ncao      :           30
 Nao       :           30
 Nel       :           32
 T(el)     :   300.0
 intcut    :    25.0
 scfconv   :  0.100E-05
   qconv   :  0.100E-03
 intneglect:  0.100E-07
 broydamp  :      0.400
 Nshell    :           20
  q data taken from xtbrestart
  CAMM data taken from xtbrestart
 iter      E             dE          RMSdq      gap      omega  full diag
   1    -17.9398595 -0.179399E+02  0.398E-06   12.42       0.0  T
   2    -17.9398595 -0.568434E-13  0.229E-06   12.42   11280.6  T
   3    -17.9398595 -0.177636E-13  0.127E-06   12.42   20330.3  T
speedup  1.00
cpu  time for SCC    0.01 s
wall time for SCC    0.01 s

          eigenvalues
 #    :           4          5          6          7          8          9         10         11
 occ. :        2.000      2.000      2.000      2.000      2.000      2.000      2.000      2.000
 eps  :       -16.190    -15.468    -15.145    -14.182    -14.066    -13.804    -13.054    -12.878
 #    :          12         13         14         15         16         17         18         19
 occ. :        2.000      2.000      2.000      2.000      2.000      0.000      0.000      0.000
 eps  :       -12.698    -12.195    -11.978    -11.762    -11.016      1.407      2.303      2.614
 #    :          20         21         22         23         24         25         26         27
 occ. :        0.000      0.000      0.000      0.000      0.000      0.000      0.000      0.000
 eps  :         2.986      3.593      4.159      5.063      5.189      5.887      6.158      6.612
 

   #   Z            q   n(s)   n(p)   n(d)      C6AA      α(0)    relVol
   1   8 O     -0.443  1.710  4.733  0.000    22.222     6.378     1.227
   2   6 C      0.077  1.039  2.883  0.000    19.523     6.334     0.513
   3   1 H      0.045  0.955  0.000  0.000     2.376     2.410     0.477
   4   1 H      0.015  0.985  0.000  0.000     2.808     2.620     0.518
   5   6 C     -0.024  1.062  2.963  0.000    21.046     6.534     0.529
   6   1 H      0.041  0.959  0.000  0.000     2.435     2.440     0.483
   7   1 H      0.287  0.713  0.000  0.000     0.701     1.314     0.260
   8   6 C     -0.111  1.041  3.071  0.000    22.750     6.809     0.551
   9   1 H      0.036  0.964  0.000  0.000     2.491     2.468     0.488
  10   1 H      0.037  0.963  0.000  0.000     2.489     2.467     0.488
  11   6 C     -0.105  1.037  3.068  0.000    22.639     6.793     0.550
  12   1 H      0.031  0.969  0.000  0.000     2.572     2.508     0.496
  13   1 H      0.035  0.965  0.000  0.000     2.511     2.478     0.490
  14   1 H      0.039  0.961  0.000  0.000     2.459     2.452     0.485
  15   1 H      0.041  0.959  0.000  0.000     2.424     2.435     0.482

 Mol. C6AA /au*bohr^6 :       1462.813946
 Mol. C8AA /au*bohr^6 :      29913.852749
 Mol. a(0) /au        :         56.438298

 
 Wiberg/Mayer (AO) data. WBOs > 0.1 written file <wbo>
 largest (>0.05) Wiberg bond orders for each atom
           total WBO             WBO to atom ...
     1  O   1.961    C    2 1.002    H    7 0.899
     2  C   3.956    O    1 1.002    C    5 0.985    H    3 0.972    H    4 0.969
     3  H   0.998    C    2 0.972
     4  H   1.000    C    2 0.969
     5  C   3.996    C   11 1.010    C    8 1.009    C    2 0.985    H    6 0.968
     6  H   0.998    C    5 0.968
     7  H   0.918    O    1 0.899
     8  C   3.996    C    5 1.009    H   10 0.987    H    9 0.987    H   15 0.986
     9  H   0.999    C    8 0.987
    10  H   0.999    C    8 0.987
    11  C   3.997    C    5 1.010    H   13 0.986    H   14 0.986    H   12 0.983
    12  H   0.999    C   11 0.983
    13  H   0.999    C   11 0.986
    14  H   0.998    C   11 0.986
    15  H   0.998    C    8 0.986
 
molecular dipole:
                 x           y           z       tot (Debye)
 q only:        0.385       0.454       0.117
   full:        0.816       0.569       0.106       2.073
molecular quadrupole (traceless):
                xx          xy          yy          xz          yz          zz
 q only:        0.427      -1.042      -0.503       2.524       3.360       0.076
  q+dip:        1.223      -0.718      -2.032       3.376       3.492       0.809
   full:        1.267      -1.086      -1.438       3.532       3.702       0.171
 SCC converged in            3  cycles
 
SCC energy    :     -17.9398595
rep           :       0.2150607
ES            :       0.0268651
AES           :       0.0041454
AXC           :       0.0058502
disp          :      -0.0075021
XB            :       0.0000000
fix           :       0.0000000
total E       :     -17.7247859
atomizationE  :       3.5326532     2216.77
(atE without considerung molecular charge,
 total energy contains solvation terms)
H-L gap (eV)  :         12.4228
 
             =======================================
             |                                     |
             |    Approximate Normal Coordinate    |
             |   Rational Function Optimization    |
             |                                     |
             =======================================
Ref. for RF algo: F.Eckert, P.Pulay, H.-J.Werner
                  J.Comput.Chem. 18 (1997) 1473.
ANC idea implemented by S. Grimme in the 2000ers (unpublished)
restraining potential by S. Ehrlich.
dumping coords to <xtbopt.coord> and <xtbopt.log
 optlevel               1
 Maxcycle             200
 Maxmicro              20
 Econv         1.000000000000000E-006
 Gconv         8.000000000000000E-004
 Maxdispl       1.00000000000000     
 Hlow          1.000000000000000E-002
 S6             20.0000000000000     
 Nvar               39

generating ANC from read Hessian ...
 Shifting diagonal of input Hessian by   9.346991519141531E-003
 Lowest  eigenvalues of input Hessian
   -0.000000   -0.000000   -0.000000    0.000000    0.000000    0.000000
    0.010000    0.011119    0.011637    0.015250    0.019963    0.020473
    0.023972    0.041961    0.052946    0.054207    0.063927    0.069044
 Highest eigenvalues
    0.757707    0.773309    0.784437    0.796606    0.821349    0.961178
 
cpu  time for ANC gen    0.01 s
wall time for ANC gen    0.01 s
................................................................................
.............................. CYCLE    1 ......................................
................................................................................
  q data taken from xtbrestart
  CAMM data taken from xtbrestart
   1    -17.9398595 -0.179399E+02  0.317E-07   12.42       0.0  T
   2    -17.9398595 -0.213163E-13  0.196E-07   12.42  100000.0  T
   3    -17.9398595  0.000000E+00  0.678E-08   12.42  100000.0  T
speedup  1.00
cpu  time for SCC    0.00 s
wall time for SCC    0.00 s
speedup  1.00
cpu  time for grad    0.00 s
wall time for grad    0.00 s
 E :    -17.72478594  G :  0.000489    pred/act E change:  0.000D+00 -0.819D-10
Maxdispl :   0.0019   ||displ|| :   0.0036   Lambda : -0.602D-06
Largest |displ|/coords:  0.0019 (   4)  0.0017 (   2)  0.0014 (   7)
ancopt converged in          1 cycles
total energy gain (kcal):      0.0000
================
 final structure:
================
    15
        -17.72478594
O           0.15462069632095   -0.54686827849097    2.12619476696068
C          -0.14424938325054    0.82811556221062    2.13356562985479
H          -1.23502234560832    0.88342400682029    2.09873238847777
H           0.25417318121710    1.31305662103500    1.22936743907057
C           0.37227830245826    1.56512241935440    3.37767707820510
H           0.01539999521316    1.02178394211345    4.25941155695454
H           1.11193831279698   -0.65152218972321    2.15365878549776
C          -0.18824622067610    2.98393730898760    3.40572000015254
H          -1.27543258822798    2.96902489878504    3.41162446768179
H           0.14285032385437    3.53900809595102    2.53027349406957
C           1.89999460175466    1.59639266096599    3.40496255198911
H           2.31690879403148    0.59281554495613    3.47168816885657
H           2.28701640813324    2.07689996819924    2.50755395142113
H           2.24823981126870    2.15709449799793    4.26936005762450
H           0.15319134071403    3.50942505083748    4.29443692318359
 
 Bond Distances (Angstroems)
 ---------------------------
O1-C2=1.4071         O1-H7=0.9634         C2-O1=1.4071         C2-H3=1.0927         C2-H4=1.1007         C2-C5=1.5355         
H3-C2=1.0927         H4-C2=1.1007         C5-C2=1.5355         C5-H6=1.0955         C5-C8=1.5258         C5-C11=1.5283        
H6-C5=1.0955         H7-O1=0.9634         C8-C5=1.5258         C8-H9=1.0873         C8-H10=1.0882        C8-H15=1.0874        
H9-C8=1.0873         H10-C8=1.0882        C11-C5=1.5283        C11-H12=1.0888       C11-H13=1.0890       C11-H14=1.0876       
H12-C11=1.0888       H13-C11=1.0890       H14-C11=1.0876       H15-C8=1.0874        
 C  H  Rav=1.0908 sigma=0.0044  Rmin=1.0873  Rmax=1.1007     9
 C  C  Rav=1.5299 sigma=0.0041  Rmin=1.5258  Rmax=1.5355     3
 O  H  Rav=0.9634 sigma=0.0000  Rmin=0.9634  Rmax=0.9634     1
 O  C  Rav=1.4071 sigma=0.0000  Rmin=1.4071  Rmax=1.4071     1
 
 selected bond angles (degree)
 --------------------
H7-O1-C2=108.48                H3-C2-O1=105.15                H4-C2-O1=110.45                H4-C2-H3=108.23                
C5-C2-O1=113.69                C5-C2-H3=109.71                C5-C2-H4=109.41                H6-C5-C2=107.73                
C8-C5-C2=109.73                C8-C5-H6=109.07                C11-C5-C2=111.13               C11-C5-H6=108.75               
C11-C5-C8=110.36               H9-C8-C5=110.77                H10-C8-C5=110.35               H10-C8-H9=108.40               
H15-C8-C5=110.43               H15-C8-H9=108.43               H15-C8-H10=108.39              
 
 selected dihedral angles (degree)
 ---------------------------------
H3-C2-O1-H7=179.85            H4-C2-O1-H7= 63.31            C5-C2-O1-H7=299.88            H6-C5-C2-O1=307.72            
H6-C5-C2-H3= 65.13            H6-C5-C2-H4=183.72            C8-C5-C2-O1=189.09            C8-C5-C2-H3=306.50            
C8-C5-C2-H4= 65.10            C11-C5-C2-O1= 66.75           C11-C5-C2-H3=184.16           C11-C5-C2-H4=302.76           
H9-C8-C5-C2= 58.62            H9-C8-C5-H6=300.82            H9-C8-C5-C11=181.42           H10-C8-C5-C2=298.57           
H10-C8-C5-H6=180.78           H10-C8-C5-C11= 61.37          H15-C8-C5-C2=178.76           H15-C8-C5-H6= 60.96           
H15-C8-C5-C11=301.55          
 
             =======================================
             |                                     |
             |        S C C  calculation           |
             |                                     |
             =======================================
 #proc     :            2
 Ncao      :           30
 Nao       :           30
 Nel       :           32
 T(el)     :   300.0
 intcut    :    25.0
 scfconv   :  0.100E-05
   qconv   :  0.100E-03
 intneglect:  0.100E-07
 broydamp  :      0.400
 Nshell    :           20
 iter      E             dE          RMSdq      gap      omega  full diag
   1    -17.9398595 -0.179399E+02  0.164E-08   12.42       0.0  T
   2    -17.9398595 -0.710543E-14  0.740E-09   12.42  100000.0  T
   3    -17.9398595  0.213163E-13  0.494E-09   12.42  100000.0  T
speedup  1.00
cpu  time for SCC    0.00 s
wall time for SCC    0.00 s

          eigenvalues
 #    :           4          5          6          7          8          9         10         11
 occ. :        2.000      2.000      2.000      2.000      2.000      2.000      2.000      2.000
 eps  :       -16.190    -15.468    -15.145    -14.182    -14.066    -13.804    -13.054    -12.878
 #    :          12         13         14         15         16         17         18         19
 occ. :        2.000      2.000      2.000      2.000      2.000      0.000      0.000      0.000
 eps  :       -12.698    -12.195    -11.978    -11.762    -11.016      1.407      2.303      2.614
 #    :          20         21         22         23         24         25         26         27
 occ. :        0.000      0.000      0.000      0.000      0.000      0.000      0.000      0.000
 eps  :         2.986      3.593      4.159      5.063      5.189      5.887      6.158      6.612
 

   #   Z            q   n(s)   n(p)   n(d)      C6AA      α(0)    relVol
   1   8 O     -0.443  1.710  4.733  0.000    22.222     6.378     1.227
   2   6 C      0.077  1.039  2.883  0.000    19.523     6.334     0.513
   3   1 H      0.045  0.955  0.000  0.000     2.376     2.410     0.477
   4   1 H      0.015  0.985  0.000  0.000     2.808     2.620     0.518
   5   6 C     -0.024  1.062  2.963  0.000    21.046     6.534     0.529
   6   1 H      0.041  0.959  0.000  0.000     2.435     2.440     0.483
   7   1 H      0.287  0.713  0.000  0.000     0.701     1.314     0.260
   8   6 C     -0.111  1.041  3.071  0.000    22.750     6.809     0.551
   9   1 H      0.036  0.964  0.000  0.000     2.491     2.468     0.488
  10   1 H      0.037  0.963  0.000  0.000     2.489     2.467     0.488
  11   6 C     -0.105  1.037  3.068  0.000    22.639     6.793     0.550
  12   1 H      0.031  0.969  0.000  0.000     2.572     2.508     0.496
  13   1 H      0.035  0.965  0.000  0.000     2.511     2.478     0.490
  14   1 H      0.039  0.961  0.000  0.000     2.459     2.452     0.485
  15   1 H      0.041  0.959  0.000  0.000     2.424     2.435     0.482

 Mol. C6AA /au*bohr^6 :       1462.813941
 Mol. C8AA /au*bohr^6 :      29913.852652
 Mol. a(0) /au        :         56.438298

 
 Wiberg/Mayer (AO) data. WBOs > 0.1 written file <wbo>
 largest (>0.05) Wiberg bond orders for each atom
           total WBO             WBO to atom ...
     1  O   1.961    C    2 1.002    H    7 0.899
     2  C   3.956    O    1 1.002    C    5 0.985    H    3 0.972    H    4 0.969
     3  H   0.998    C    2 0.972
     4  H   1.000    C    2 0.969
     5  C   3.996    C   11 1.010    C    8 1.009    C    2 0.985    H    6 0.968
     6  H   0.998    C    5 0.968
     7  H   0.918    O    1 0.899
     8  C   3.996    C    5 1.009    H   10 0.987    H    9 0.987    H   15 0.986
     9  H   0.999    C    8 0.987
    10  H   0.999    C    8 0.987
    11  C   3.997    C    5 1.010    H   13 0.986    H   14 0.986    H   12 0.983
    12  H   0.999    C   11 0.983
    13  H   0.999    C   11 0.986
    14  H   0.998    C   11 0.986
    15  H   0.998    C    8 0.986
 
molecular dipole:
                 x           y           z       tot (Debye)
 q only:        0.385       0.454       0.117
   full:        0.574       0.569       0.106       2.073
molecular quadrupole (traceless):
                xx          xy          yy          xz          yz          zz
 q only:        0.427      -1.042      -0.503       2.524       3.360       0.076
  q+dip:        1.223      -0.718      -2.032       3.376       3.492       0.809
   full:        1.267      -1.086      -1.438       3.532       3.702       0.171
 SCC converged in            3  cycles
 
SCC energy    :     -17.9398595
rep           :       0.2150607
ES            :       0.0268651
AES           :       0.0041454
AXC           :       0.0058502
disp          :      -0.0075021
XB            :       0.0000000
fix           :       0.0000000
total E       :     -17.7247859
atomizationE  :       3.5326532     2216.77
(atE without considerung molecular charge,
 total energy contains solvation terms)
H-L gap (eV)  :         12.4228
 !!!!!!!!!!!!!!!!!!!!!!!!!!!!!!!!!!!
 ! Note: the input coordinates are !
 ! NOT overwritten. The optimized  !
 ! ones are on file <xtbopt.coord> !
 ! (or on <xtbopt.xyz> if it was a !
 ! xyz file)                       !
 !!!!!!!!!!!!!!!!!!!!!!!!!!!!!!!!!!!
 
Refinement of some symmetry elements was terminated before convergence was reached.
Some symmetry elements may remain unidentified.
Molecule has no symmetry elements
It seems to be the C1 point group
c1  symmetry found (for desy threshold:  0.10E+00) used in thermo
  q data taken from xtbrestart
  CAMM data taken from xtbrestart
 
             =======================================
             |                                     |
             |         Numerical Hessian           |
             |                                     |
             =======================================
step length          :   0.00500
SCC accuracy         :   0.30000
Hessian scale factor :   1.00000
frozen atoms in %    :   0.00000    0
RMS gradient         :   0.00049
estimated CPU  time      0.01 min
estimated wall time      0.01 min
 
 writing file <hessian>.
 
 projected vibrational frequencies (cm-1)
eig.   :       -0.00    -0.00    -0.00    -0.00     0.00     0.00
eig.   :       89.73   200.89   227.63   264.09   347.96   358.55
eig.   :      428.04   484.07   852.86   914.57   947.86   970.60
eig.   :      988.32  1082.67  1116.24  1152.86  1179.08  1211.05
eig.   :     1290.14  1318.79  1334.76  1363.17  1409.40  1422.04
eig.   :     1478.71  1495.70  1500.37  1505.49  1513.42  2862.27
eig.   :     2942.19  2977.66  3016.90  3019.77  3029.71  3034.46
eig.   :     3039.95  3041.60  3546.56
 reduced masses (amu)
   1:  9.76   2:  8.45   3: 11.90   4: 12.49   5: 11.69   6: 10.18   7:  8.07   8:  1.77
   9:  1.88  10:  9.49  11:  4.66  12:  7.01  13:  7.04  14: 10.03  15:  8.11  16:  3.47
  17:  2.75  18:  6.45  19:  4.29  20: 10.26  21:  5.83  22:  7.36  23:  5.99  24:  5.14
  25:  4.14  26:  3.86  27:  4.25  28:  4.20  29:  3.31  30:  3.08  31:  1.83  32:  1.60
  33:  1.57  34:  1.59  35:  1.53  36:  1.73  37:  1.76  38:  1.70  39:  1.93  40:  1.70
  41:  1.88  42:  1.82  43:  1.61  44:  1.34  45:  1.87
 IR intensities (amu)
   1:  0.29   2:  0.07   3:  0.11   4:  0.18   5:  0.08   6:  0.12   7:  0.25   8:  0.06
   9:  0.11  10:  0.27  11:  0.55  12:  0.27  13:  0.11  14:  0.41  15:  0.23  16:  0.17
  17:  0.02  18:  0.23  19:  0.07  20:  1.14  21:  0.42  22:  0.16  23:  0.09  24:  0.10
  25:  0.19  26:  0.31  27:  0.17  28:  0.43  29:  0.10  30:  0.07  31:  0.10  32:  0.03
  33:  0.03  34:  0.06  35:  0.04  36:  0.35  37:  0.25  38:  0.23  39:  0.22  40:  0.18
  41:  0.30  42:  0.14  43:  0.25  44:  0.17  45:  0.15
 output can be read by thermo (or use thermo option).
 writing <g98.out> molden fake output.
 recommended (thermochemical) frequency scaling factor: 1.0
                    ==================
                    thermo calculation
                    ==================
Nvib :   39 Nimag : 0  symmetry :   c1  rot number :  1  scale factor : 1.00 sthr :  50.
omega= 89.73     Gvib=    -1.093     Grot=    -0.883     Gused=    -1.075
omega=200.89     Gvib=    -0.634     Grot=    -0.644     Gused=    -0.634
omega=227.63     Gvib=    -0.566     Grot=    -0.607     Gused=    -0.566
omega=264.09     Gvib=    -0.487     Grot=    -0.563     Gused=    -0.487
 
   temp. (K)  partition function   enthalpy   heat capacity  entropy
                                   cal/mol     cal/K/mol   cal/K/mol   J/K/mol
 298.15  VIB   19.8                 2483.954     17.791     14.201
         ROT  0.103E+06              888.752      2.981     25.923
         INT  0.204E+07             3372.706     20.772     40.124
         TR   0.617E+27             1481.254      4.968     38.808
         TOT                        4853.9601    25.7398    78.9322   330.2512
                     Eh         kcal/mol          kJ/mol 
ZPVE            0.134321         84.2878         352.659    
H(0)-H(T)+PV    0.773528E-02     4.85396         20.3089    
H(T)            0.142056         89.1417         372.968    
T*S             0.375032E-01     23.5336         98.4644    
G(T)            0.104553         65.6081         274.503    
    -17.62023280  <=== TOTAL FREE ENERGY in Eh incl. el.,ZPVE,RRHO,solv. parts
 
Eat (element increment corrected) /kcal :  1594.332
        -241.051  <=== HOF(298)/kcal, to be compared to exptl. data
 
 normal mode %tage of torsion character
   1:  0.00   2:  0.00   3:  0.00   4:  0.00   5:  0.00   6:  0.00   7:  0.56   8:  0.87
   9:  0.89  10:  0.24  11:  0.76  12:  0.22  13:  0.40  14:  0.35  15:  0.21  16:  0.60
  17:  0.15  18:  0.14  19:  0.12  20:  0.03  21:  0.16  22:  0.23  23:  0.18  24:  0.37
  25:  0.09  26:  0.22  27:  0.28  28:  0.15  29:  0.00  30:  0.00  31:  0.86  32:  0.93
  33:  0.93  34:  0.85  35:  0.90  36:  0.24  37:  0.14  38:  0.11  39:  0.06  40:  0.03
  41:  0.04  42:  0.03  43:  0.02  44:  0.00  45:  0.02
 recommended # of modes for mode following           4
 
speedup  0.98
cpu  time for all    0.73 s
wall time for all    0.75 s
