 Entering Gaussian System
 *********************************************
 Gaussian 98:
 frequency output generated by the xtb code
 *********************************************
                         Standard orientation:
 --------------------------------------------------------------------
  Center     Atomic     Atomic              Coordinates (Angstroms)
  Number     Number      Type              X           Y           Z
 --------------------------------------------------------------------
    1          8             0        0.154625   -0.546865    2.126195
    2          6             0       -0.144238    0.828120    2.133565
    3          1             0       -1.235010    0.883434    2.098735
    4          1             0        0.254184    1.313057    1.229364
    5          6             0        0.372298    1.565126    3.377673
    6          1             0        0.015420    1.021791    4.259410
    7          1             0        1.111942   -0.651524    2.153656
    8          6             0       -0.188219    2.983944    3.405715
    9          1             0       -1.275405    2.969037    3.411624
   10          1             0        0.142878    3.539012    2.530267
   11          6             0        1.900015    1.596389    3.404953
   12          1             0        2.316924    0.592809    3.471679
   13          1             0        2.287036    2.076892    2.507542
   14          1             0        2.248266    2.157090    4.269348
   15          1             0        0.153225    3.509432    4.294430
 --------------------------------------------------------------------
     1 basis functions        1 primitive gaussians
     1 alpha electrons        1 beta electrons
 
 Harmonic frequencies (cm**-1), IR intensities (KM/Mole),
 Raman scattering activities (A**4/amu), Raman depolarization ratios,
 reduced masses (AMU), force constants (mDyne/A) and normal coordinates:
                      1                      2                      3
                        a                      a                      a 
 Frequencies --    89.7329               200.8903               227.6343
 Red. masses --     8.0659                 1.7746                 1.8811
 Frc consts  --     0.0000                 0.0000                 0.0000
 IR Inten    --     0.2508                 0.0635                 0.1051
 Raman Activ --     0.0000                 0.0000                 0.0000
 Depolar     --     0.0000                 0.0000                 0.0000
 Atom AN      X      Y      Z        X      Y      Z        X      Y      Z
   1   8    -0.44  -0.11   0.17    -0.05  -0.01   0.09     0.10  -0.05   0.10
   2   6     0.32   0.06  -0.24     0.03   0.01  -0.07    -0.11  -0.08   0.04
   3   1     0.11   0.17  -0.22     0.01   0.02  -0.05    -0.04  -0.07   0.06
   4   1     0.28  -0.09  -0.04     0.04  -0.02  -0.02    -0.09  -0.02  -0.01
   5   6     0.12  -0.03  -0.10     0.01  -0.00  -0.06    -0.04   0.02  -0.04
   6   1     0.05  -0.07  -0.06     0.01  -0.03  -0.03    -0.01   0.01  -0.01
   7   1    -0.13  -0.17   0.22    -0.02  -0.01   0.10     0.03   0.02  -0.10
   8   6    -0.13  -0.14   0.14    -0.02  -0.02   0.16     0.11   0.08  -0.03
   9   1    -0.04  -0.10   0.08    -0.01  -0.00  -0.38     0.03   0.07  -0.33
  10   1    -0.10   0.01   0.05     0.34   0.17   0.29     0.31   0.11   0.15
  11   6     0.12   0.25  -0.02     0.02   0.03  -0.14    -0.05   0.02  -0.06
  12   1     0.09   0.09  -0.17     0.01   0.03   0.27     0.00  -0.01  -0.45
  13   1     0.01   0.24   0.08    -0.00  -0.27  -0.19    -0.04   0.39   0.18
  14   1    -0.01  -0.05   0.09     0.01   0.28  -0.22    -0.01  -0.36   0.22
  15   1    -0.03  -0.05   0.05    -0.35  -0.19   0.29    -0.21  -0.10   0.15
                      4                      5                      6
                        a                      a                      a 
 Frequencies --   264.0867               347.9566               358.5544
 Red. masses --     9.4927                 4.6617                 7.0136
 Frc consts  --     0.0000                 0.0000                 0.0000
 IR Inten    --     0.2709                 0.5506                 0.2680
 Raman Activ --     0.0000                 0.0000                 0.0000
 Depolar     --     0.0000                 0.0000                 0.0000
 Atom AN      X      Y      Z        X      Y      Z        X      Y      Z
   1   8    -0.32  -0.10  -0.36     0.04  -0.07  -0.32     0.02   0.28  -0.04
   2   6    -0.05  -0.05   0.26    -0.12  -0.10   0.06     0.06   0.20   0.19
   3   1    -0.02   0.02   0.18    -0.03  -0.06   0.01     0.02   0.07   0.03
   4   1    -0.09   0.04   0.07    -0.03   0.02   0.04     0.04   0.10   0.08
   5   6     0.21  -0.06   0.18    -0.12  -0.13   0.08     0.12   0.03   0.20
   6   1     0.08   0.02   0.09    -0.02  -0.01   0.04     0.05   0.03   0.08
   7   1    -0.08  -0.08  -0.24    -0.01   0.01   0.76    -0.01   0.06   0.41
   8   6    -0.01  -0.13  -0.26     0.26   0.02   0.01    -0.31  -0.15  -0.22
   9   1    -0.00  -0.08  -0.22     0.07   0.13   0.01    -0.09  -0.19  -0.18
  10   1     0.09  -0.07  -0.06     0.13  -0.05  -0.01    -0.07  -0.07  -0.07
  11   6     0.21   0.30   0.24    -0.12   0.20  -0.02     0.15  -0.31  -0.14
  12   1     0.13   0.12   0.11     0.09   0.11  -0.02    -0.04  -0.13  -0.15
  13   1     0.04   0.08   0.06    -0.11   0.10  -0.01     0.01  -0.06  -0.04
  14   1    -0.00   0.15   0.06    -0.07   0.09  -0.01     0.16  -0.19  -0.02
  15   1    -0.15   0.03  -0.06     0.14  -0.01  -0.01    -0.26   0.07  -0.07
                      7                      8                      9
                        a                      a                      a 
 Frequencies --   428.0384               484.0714               852.8631
 Red. masses --     7.0413                10.0278                 8.1119
 Frc consts  --     0.0000                 0.0000                 0.0000
 IR Inten    --     0.1128                 0.4067                 0.2341
 Raman Activ --     0.0000                 0.0000                 0.0000
 Depolar     --     0.0000                 0.0000                 0.0000
 Atom AN      X      Y      Z        X      Y      Z        X      Y      Z
   1   8    -0.01  -0.12  -0.13     0.03   0.38   0.32     0.05  -0.13   0.02
   2   6     0.35  -0.01   0.17    -0.09   0.22  -0.11    -0.37  -0.07  -0.32
   3   1     0.11   0.07  -0.18    -0.02   0.08  -0.07    -0.09   0.01  -0.32
   4   1     0.31   0.03   0.16     0.02   0.07  -0.00     0.12  -0.05  -0.01
   5   6    -0.21  -0.02   0.42    -0.08  -0.38   0.07    -0.10  -0.10   0.28
   6   1    -0.06   0.03   0.14    -0.03  -0.17  -0.03    -0.00  -0.07   0.05
   7   1    -0.01  -0.13  -0.24     0.02   0.15  -0.13     0.03   0.17  -0.03
   8   6     0.05   0.12  -0.01     0.21  -0.41  -0.15    -0.13   0.24   0.11
   9   1     0.01   0.13  -0.05     0.06  -0.03  -0.08    -0.04   0.11  -0.07
  10   1     0.10  -0.08  -0.04     0.13  -0.23  -0.09     0.04  -0.12  -0.06
  11   6    -0.26   0.01  -0.23    -0.12   0.09  -0.02     0.43  -0.04   0.07
  12   1    -0.07   0.00  -0.15     0.13   0.10   0.00     0.23   0.03  -0.02
  13   1    -0.25  -0.00  -0.15    -0.13   0.08  -0.02    -0.00   0.03  -0.01
  14   1     0.11   0.01  -0.14    -0.10   0.11  -0.03     0.16   0.03  -0.02
  15   1     0.02   0.09  -0.04     0.08  -0.05  -0.09    -0.09   0.25  -0.06
                     10                     11                     12
                        a                      a                      a 
 Frequencies --   914.5743               947.8588               970.5989
 Red. masses --     3.4655                 2.7483                 6.4515
 Frc consts  --     0.0000                 0.0000                 0.0000
 IR Inten    --     0.1727                 0.0151                 0.2325
 Raman Activ --     0.0000                 0.0000                 0.0000
 Depolar     --     0.0000                 0.0000                 0.0000
 Atom AN      X      Y      Z        X      Y      Z        X      Y      Z
   1   8     0.04   0.02  -0.05    -0.01   0.02   0.01    -0.04   0.16   0.02
   2   6    -0.23  -0.08   0.31     0.01  -0.01   0.01     0.19  -0.03   0.19
   3   1    -0.03   0.13  -0.38     0.00   0.01   0.01     0.04  -0.04   0.13
   4   1     0.38   0.01   0.28    -0.00   0.00   0.00    -0.04   0.06   0.05
   5   6    -0.05  -0.01  -0.14     0.07  -0.11  -0.01    -0.21  -0.26  -0.13
   6   1     0.15   0.20   0.16    -0.26   0.16   0.00    -0.09  -0.08  -0.05
   7   1     0.03   0.20  -0.05     0.00   0.02  -0.02    -0.02  -0.08  -0.01
   8   6     0.04  -0.06  -0.10     0.13   0.18  -0.12    -0.34   0.12  -0.14
   9   1     0.01  -0.06   0.06     0.04  -0.33   0.08    -0.09   0.49   0.08
  10   1    -0.06   0.15   0.06    -0.25   0.35   0.06     0.10   0.09   0.07
  11   6     0.04  -0.02  -0.16    -0.03  -0.25   0.11     0.30  -0.11  -0.01
  12   1     0.03   0.01   0.11     0.44   0.12  -0.07     0.25   0.04  -0.00
  13   1     0.27   0.04   0.10    -0.40   0.12  -0.05     0.02   0.03   0.00
  14   1    -0.28  -0.01   0.08    -0.07   0.14  -0.08     0.00   0.04  -0.01
  15   1     0.04  -0.18   0.06    -0.12  -0.04   0.08     0.22  -0.27   0.03
                     13                     14                     15
                        a                      a                      a 
 Frequencies --   988.3174              1082.6681              1116.2435
 Red. masses --     4.2920                10.2618                 5.8311
 Frc consts  --     0.0000                 0.0000                 0.0000
 IR Inten    --     0.0750                 1.1356                 0.4218
 Raman Activ --     0.0000                 0.0000                 0.0000
 Depolar     --     0.0000                 0.0000                 0.0000
 Atom AN      X      Y      Z        X      Y      Z        X      Y      Z
   1   8     0.01   0.01  -0.00    -0.13   0.56   0.01     0.08  -0.20   0.06
   2   6    -0.14  -0.06  -0.08     0.12  -0.57  -0.12    -0.05   0.40  -0.12
   3   1    -0.03   0.03  -0.10     0.01  -0.40  -0.12    -0.04  -0.32  -0.08
   4   1     0.04  -0.03   0.00    -0.03   0.03   0.01    -0.13   0.32   0.05
   5   6    -0.09   0.16   0.05    -0.11   0.00   0.07    -0.28   0.12   0.14
   6   1    -0.16   0.19   0.05     0.04   0.12   0.12    -0.10   0.16   0.10
   7   1     0.01   0.11   0.00    -0.06  -0.18  -0.01    -0.03  -0.48   0.00
   8   6     0.04  -0.28  -0.20     0.09   0.02   0.05     0.09  -0.15  -0.05
   9   1     0.01   0.00   0.11     0.02  -0.12  -0.01     0.02  -0.11   0.03
  10   1    -0.02   0.16   0.09    -0.04   0.01  -0.01    -0.03   0.02   0.01
  11   6     0.14   0.21   0.24     0.06   0.05  -0.02     0.19  -0.02  -0.12
  12   1    -0.22  -0.07  -0.13    -0.03  -0.01   0.02     0.08   0.02   0.05
  13   1    -0.16  -0.09  -0.10     0.09  -0.01   0.02     0.17   0.03   0.05
  14   1     0.52  -0.05  -0.07     0.01  -0.01   0.02    -0.11   0.01   0.03
  15   1     0.15  -0.38   0.08    -0.06   0.07   0.01     0.01  -0.09   0.02
                     16                     17                     18
                        a                      a                      a 
 Frequencies --  1152.8643              1179.0834              1211.0533
 Red. masses --     7.3598                 5.9915                 5.1425
 Frc consts  --     0.0000                 0.0000                 0.0000
 IR Inten    --     0.1595                 0.0907                 0.0998
 Raman Activ --     0.0000                 0.0000                 0.0000
 Depolar     --     0.0000                 0.0000                 0.0000
 Atom AN      X      Y      Z        X      Y      Z        X      Y      Z
   1   8     0.00  -0.04   0.07    -0.03   0.01  -0.01     0.07   0.06   0.01
   2   6    -0.03   0.04  -0.33     0.04  -0.08  -0.21    -0.22   0.07   0.13
   3   1    -0.01  -0.01   0.05     0.01   0.03   0.05    -0.06  -0.23  -0.29
   4   1    -0.08   0.16  -0.03    -0.06  -0.12  -0.14     0.11   0.15   0.17
   5   6     0.30  -0.32   0.33     0.16   0.43   0.15     0.31   0.06  -0.30
   6   1     0.36  -0.01   0.25     0.10   0.37   0.22     0.32  -0.08  -0.04
   7   1     0.00  -0.00   0.02     0.01   0.12  -0.00    -0.03  -0.37  -0.01
   8   6    -0.09   0.21  -0.23    -0.15  -0.27   0.05    -0.11   0.01   0.05
   9   1    -0.02   0.10   0.11    -0.04   0.22   0.00    -0.02   0.13  -0.04
  10   1    -0.07   0.30   0.09     0.18  -0.18   0.02     0.08  -0.08  -0.01
  11   6    -0.20   0.05  -0.04    -0.09  -0.24  -0.03    -0.15  -0.08   0.25
  12   1    -0.15  -0.03   0.04     0.25   0.06   0.03     0.04   0.00  -0.11
  13   1     0.04  -0.03   0.02    -0.13   0.11   0.04    -0.32  -0.01  -0.06
  14   1    -0.06  -0.05   0.04    -0.21   0.08  -0.02     0.12   0.07  -0.06
  15   1     0.05  -0.17   0.05     0.14  -0.12  -0.02     0.06   0.03  -0.04
                     19                     20                     21
                        a                      a                      a 
 Frequencies --  1290.1429              1318.7948              1334.7633
 Red. masses --     4.1393                 3.8570                 4.2513
 Frc consts  --     0.0000                 0.0000                 0.0000
 IR Inten    --     0.1862                 0.3117                 0.1664
 Raman Activ --     0.0000                 0.0000                 0.0000
 Depolar     --     0.0000                 0.0000                 0.0000
 Atom AN      X      Y      Z        X      Y      Z        X      Y      Z
   1   8    -0.04  -0.10   0.07     0.18   0.17  -0.03    -0.08  -0.05   0.02
   2   6     0.10  -0.05  -0.13    -0.21   0.04   0.03    -0.03  -0.04   0.01
   3   1     0.03   0.14   0.17    -0.04   0.28   0.02    -0.01  -0.30  -0.16
   4   1    -0.02   0.47   0.20     0.06  -0.39  -0.15     0.03   0.24   0.14
   5   6    -0.04  -0.27  -0.33     0.19  -0.27   0.01     0.48   0.00   0.13
   6   1    -0.04   0.49   0.24    -0.30   0.33   0.11    -0.59   0.00  -0.25
   7   1     0.01   0.16   0.00    -0.02  -0.49  -0.01     0.00   0.18   0.00
   8   6    -0.02   0.00   0.20    -0.06   0.00   0.07    -0.12  -0.03   0.01
   9   1    -0.01   0.05  -0.09    -0.02   0.11  -0.01    -0.02   0.13   0.01
  10   1     0.01  -0.12  -0.03     0.01  -0.02   0.01     0.06   0.00   0.04
  11   6     0.01   0.06   0.07     0.02   0.09  -0.06    -0.04   0.05  -0.13
  12   1    -0.04  -0.01  -0.05    -0.13  -0.03   0.01    -0.13  -0.03   0.06
  13   1    -0.03  -0.04  -0.03     0.03  -0.03  -0.02     0.02   0.02  -0.01
  14   1     0.11  -0.02  -0.01    -0.07  -0.03   0.04    -0.13  -0.03   0.04
  15   1    -0.06   0.19  -0.05    -0.03   0.08  -0.02     0.06   0.02  -0.04
                     22                     23                     24
                        a                      a                      a 
 Frequencies --  1363.1652              1409.3978              1422.0439
 Red. masses --     4.2008                 3.3056                 3.0789
 Frc consts  --     0.0000                 0.0000                 0.0000
 IR Inten    --     0.4257                 0.0955                 0.0697
 Raman Activ --     0.0000                 0.0000                 0.0000
 Depolar     --     0.0000                 0.0000                 0.0000
 Atom AN      X      Y      Z        X      Y      Z        X      Y      Z
   1   8    -0.12  -0.06  -0.04    -0.01  -0.01  -0.00     0.01  -0.00   0.01
   2   6     0.16   0.35   0.17     0.03  -0.00   0.01     0.01  -0.03  -0.01
   3   1     0.02  -0.52  -0.20     0.01  -0.00  -0.00     0.00   0.08  -0.01
   4   1    -0.06  -0.38  -0.25    -0.02   0.01  -0.01    -0.04   0.05   0.00
   5   6    -0.01  -0.25  -0.11    -0.09   0.05  -0.01    -0.02  -0.02  -0.01
   6   1     0.07   0.24   0.18     0.10  -0.05   0.01     0.02   0.01   0.02
   7   1     0.01   0.29  -0.01     0.00   0.04   0.01     0.00   0.00   0.01
   8   6    -0.02   0.06   0.05     0.13  -0.27  -0.02    -0.11   0.30   0.01
   9   1    -0.00  -0.01  -0.04     0.01   0.33   0.02    -0.00  -0.38  -0.01
  10   1    -0.01  -0.04  -0.02    -0.19   0.28   0.11     0.19  -0.31  -0.14
  11   6     0.01   0.05   0.04     0.33  -0.02   0.02     0.29   0.01   0.00
  12   1    -0.05  -0.02  -0.02    -0.33  -0.15   0.01    -0.31  -0.14   0.02
  13   1    -0.03  -0.04  -0.03    -0.37   0.08  -0.12    -0.34   0.06  -0.13
  14   1     0.03  -0.03   0.02    -0.33   0.07   0.10    -0.31   0.04   0.11
  15   1     0.01   0.02  -0.00    -0.20   0.26  -0.09     0.19  -0.31   0.12
                     25                     26                     27
                        a                      a                      a 
 Frequencies --  1478.7098              1495.6965              1500.3724
 Red. masses --     1.8291                 1.5960                 1.5662
 Frc consts  --     0.0000                 0.0000                 0.0000
 IR Inten    --     0.0983                 0.0277                 0.0263
 Raman Activ --     0.0000                 0.0000                 0.0000
 Depolar     --     0.0000                 0.0000                 0.0000
 Atom AN      X      Y      Z        X      Y      Z        X      Y      Z
   1   8    -0.01   0.03  -0.01    -0.01   0.00  -0.00    -0.00  -0.01   0.00
   2   6    -0.15   0.10  -0.19    -0.02   0.01  -0.05     0.01  -0.01   0.02
   3   1    -0.04  -0.31   0.57    -0.01  -0.07   0.14     0.00  -0.00  -0.07
   4   1     0.62  -0.15   0.19     0.14  -0.03   0.04    -0.06   0.03  -0.01
   5   6    -0.01   0.01  -0.01    -0.03   0.03   0.00     0.06  -0.01  -0.01
   6   1    -0.00  -0.01  -0.01    -0.00  -0.00  -0.00    -0.04   0.03  -0.01
   7   1    -0.00   0.01  -0.00     0.00   0.03  -0.00     0.00   0.01   0.00
   8   6     0.02   0.02   0.02    -0.06  -0.03  -0.12     0.15   0.07  -0.11
   9   1     0.00   0.02  -0.07    -0.00  -0.12   0.37     0.01   0.25   0.36
  10   1    -0.08  -0.05  -0.06     0.36   0.04   0.16    -0.09  -0.32  -0.25
  11   6     0.03  -0.05  -0.01     0.02   0.12   0.13    -0.02  -0.06   0.06
  12   1    -0.08  -0.03   0.05     0.14   0.04  -0.41    -0.08  -0.05  -0.19
  13   1    -0.02   0.13   0.06     0.07  -0.47  -0.22     0.12   0.06   0.09
  14   1     0.02   0.07  -0.06    -0.25  -0.04   0.14    -0.02   0.23  -0.14
  15   1    -0.00  -0.07   0.05    -0.10   0.16  -0.07    -0.53  -0.20   0.32
                     28                     29                     30
                        a                      a                      a 
 Frequencies --  1505.4910              1513.4167              2862.2695
 Red. masses --     1.5895                 1.5288                 1.7257
 Frc consts  --     0.0000                 0.0000                 0.0000
 IR Inten    --     0.0564                 0.0366                 0.3471
 Raman Activ --     0.0000                 0.0000                 0.0000
 Depolar     --     0.0000                 0.0000                 0.0000
 Atom AN      X      Y      Z        X      Y      Z        X      Y      Z
   1   8     0.00  -0.00   0.00     0.00  -0.00   0.00     0.00  -0.02   0.00
   2   6    -0.01  -0.02  -0.02     0.01  -0.01   0.00    -0.12  -0.10   0.20
   3   1    -0.00   0.00   0.00     0.00   0.03  -0.03     0.05  -0.02   0.04
   4   1     0.01   0.01   0.01    -0.04  -0.01  -0.02     0.36   0.42  -0.79
   5   6     0.04   0.06   0.06    -0.00  -0.03   0.06     0.00   0.01  -0.01
   6   1    -0.01  -0.03  -0.02    -0.03  -0.01   0.00    -0.02  -0.03   0.06
   7   1     0.00   0.00  -0.00     0.00   0.02   0.01     0.00  -0.00  -0.00
   8   6     0.10   0.02   0.12    -0.05  -0.01   0.07     0.00   0.00  -0.00
   9   1     0.00   0.19  -0.41    -0.00  -0.08  -0.26     0.00  -0.00   0.00
  10   1    -0.47  -0.08  -0.22    -0.07   0.12   0.05    -0.00  -0.00   0.01
  11   6    -0.01   0.12   0.05     0.02  -0.11   0.15     0.00   0.00  -0.01
  12   1     0.18   0.07  -0.20    -0.18  -0.12  -0.51    -0.00   0.00  -0.00
  13   1     0.01  -0.40  -0.21     0.27   0.03   0.15    -0.00  -0.00   0.01
  14   1    -0.18  -0.17   0.19    -0.14   0.52  -0.28     0.00   0.00   0.00
  15   1     0.05  -0.24   0.13     0.26   0.02  -0.10     0.00   0.00   0.00
                     31                     32                     33
                        a                      a                      a 
 Frequencies --  2942.1879              2977.6622              3016.8979
 Red. masses --     1.7562                 1.6955                 1.9284
 Frc consts  --     0.0000                 0.0000                 0.0000
 IR Inten    --     0.2526                 0.2340                 0.2163
 Raman Activ --     0.0000                 0.0000                 0.0000
 Depolar     --     0.0000                 0.0000                 0.0000
 Atom AN      X      Y      Z        X      Y      Z        X      Y      Z
   1   8     0.00  -0.00  -0.00    -0.00   0.01  -0.00     0.00  -0.00   0.00
   2   6    -0.00  -0.01   0.02    -0.25   0.01  -0.02    -0.00   0.00  -0.00
   3   1    -0.03   0.00   0.00     0.96  -0.05   0.02     0.02  -0.00   0.00
   4   1     0.03   0.03  -0.06    -0.06  -0.03   0.05    -0.00  -0.00   0.01
   5   6    -0.08  -0.13   0.21    -0.01  -0.01   0.01     0.00   0.01  -0.01
   6   1     0.31   0.47  -0.77     0.01   0.02  -0.03    -0.01  -0.02   0.03
   7   1     0.00  -0.00   0.00    -0.01   0.00  -0.00     0.00  -0.00  -0.00
   8   6     0.01   0.00  -0.01     0.01   0.00   0.01    -0.04  -0.03   0.03
   9   1    -0.02  -0.00  -0.00    -0.04  -0.00   0.00     0.08  -0.00   0.00
  10   1    -0.02  -0.03   0.05     0.00   0.01  -0.01     0.05   0.09  -0.14
  11   6    -0.00   0.01  -0.02     0.00  -0.00  -0.01    -0.03   0.27  -0.06
  12   1     0.01  -0.03  -0.00    -0.01   0.02  -0.00     0.31  -0.77   0.04
  13   1    -0.03  -0.03   0.06    -0.01  -0.01   0.02    -0.14  -0.14   0.33
  14   1     0.01   0.01   0.01     0.00   0.01   0.01    -0.06  -0.06  -0.16
  15   1     0.01   0.01   0.02    -0.00  -0.01  -0.02     0.01   0.02   0.05
                     34                     35                     36
                        a                      a                      a 
 Frequencies --  3019.7732              3029.7144              3034.4607
 Red. masses --     1.7041                 1.8800                 1.8224
 Frc consts  --     0.0000                 0.0000                 0.0000
 IR Inten    --     0.1814                 0.2999                 0.1366
 Raman Activ --     0.0000                 0.0000                 0.0000
 Depolar     --     0.0000                 0.0000                 0.0000
 Atom AN      X      Y      Z        X      Y      Z        X      Y      Z
   1   8     0.00   0.00   0.00     0.00  -0.00   0.00     0.00  -0.00   0.00
   2   6     0.01  -0.00  -0.00    -0.00   0.00  -0.00     0.01   0.00  -0.00
   3   1    -0.03   0.00  -0.00     0.01   0.00  -0.00    -0.03  -0.00  -0.00
   4   1    -0.00  -0.00   0.01    -0.01  -0.01   0.02     0.00   0.00  -0.00
   5   6     0.01   0.00  -0.01     0.01   0.02  -0.03     0.01   0.01  -0.00
   6   1    -0.01  -0.02   0.03    -0.03  -0.04   0.07    -0.01  -0.01   0.01
   7   1    -0.00   0.00  -0.00    -0.00   0.00  -0.00     0.00  -0.00  -0.00
   8   6    -0.02  -0.01   0.05     0.07   0.08  -0.25     0.20   0.11   0.12
   9   1     0.04  -0.00   0.01    -0.09   0.01  -0.04    -0.47  -0.00   0.02
  10   1     0.05   0.08  -0.13    -0.28  -0.44   0.71    -0.02  -0.06   0.14
  11   6     0.09  -0.03  -0.23     0.01   0.04  -0.05    -0.05  -0.01  -0.08
  12   1    -0.13   0.36  -0.06     0.03  -0.06  -0.00     0.07  -0.21   0.00
  13   1    -0.28  -0.39   0.68    -0.08  -0.10   0.18    -0.00   0.01  -0.02
  14   1     0.09   0.13   0.17     0.01   0.01   0.00     0.12   0.22   0.32
  15   1    -0.02  -0.03  -0.04     0.11   0.15   0.20    -0.20  -0.32  -0.57
                     37                     38                     39
                        a                      a                      a 
 Frequencies --  3039.9466              3041.5954              3546.5635
 Red. masses --     1.6080                 1.3411                 1.8707
 Frc consts  --     0.0000                 0.0000                 0.0000
 IR Inten    --     0.2496                 0.1745                 0.1523
 Raman Activ --     0.0000                 0.0000                 0.0000
 Depolar     --     0.0000                 0.0000                 0.0000
 Atom AN      X      Y      Z        X      Y      Z        X      Y      Z
   1   8     0.00  -0.00   0.00    -0.00  -0.00  -0.00     0.24  -0.02   0.01
   2   6    -0.01   0.00   0.00     0.01   0.00   0.00     0.01  -0.00   0.00
   3   1     0.02  -0.00   0.00    -0.02   0.00  -0.00    -0.01  -0.00   0.00
   4   1    -0.00  -0.00   0.00     0.00   0.00  -0.00    -0.00   0.00  -0.00
   5   6    -0.01  -0.00  -0.01     0.00  -0.00  -0.01    -0.00   0.00   0.00
   6   1    -0.00  -0.00   0.01    -0.01  -0.01   0.01     0.00  -0.00   0.00
   7   1    -0.00   0.00  -0.00     0.00   0.00   0.00    -0.96   0.11  -0.03
   8   6    -0.12  -0.04  -0.05     0.12  -0.10  -0.07     0.00  -0.00   0.00
   9   1     0.39   0.01  -0.01    -0.74  -0.03  -0.01    -0.00   0.00   0.00
  10   1    -0.01   0.01  -0.03     0.10   0.12  -0.23     0.00   0.00  -0.00
  11   6    -0.10  -0.08  -0.14    -0.02  -0.02  -0.03    -0.00   0.00  -0.00
  12   1     0.06  -0.19  -0.01     0.01  -0.02  -0.00     0.00  -0.00   0.00
  13   1     0.05   0.06  -0.15     0.00   0.00  -0.02    -0.00   0.00  -0.00
  14   1     0.24   0.42   0.65     0.05   0.08   0.13    -0.00  -0.00   0.00
  15   1     0.07   0.12   0.21     0.20   0.26   0.46    -0.00   0.00   0.00
