 Entering Gaussian System
 *********************************************
 Gaussian 98:
 frequency output generated by the xtb code
 *********************************************
                         Standard orientation:
 --------------------------------------------------------------------
  Center     Atomic     Atomic              Coordinates (Angstroms)
  Number     Number      Type              X           Y           Z
 --------------------------------------------------------------------
    1          8             0        0.154621   -0.546868    2.126195
    2          6             0       -0.144249    0.828116    2.133566
    3          1             0       -1.235022    0.883424    2.098732
    4          1             0        0.254173    1.313057    1.229367
    5          6             0        0.372278    1.565122    3.377677
    6          1             0        0.015400    1.021784    4.259411
    7          1             0        1.111938   -0.651522    2.153659
    8          6             0       -0.188246    2.983937    3.405720
    9          1             0       -1.275433    2.969025    3.411624
   10          1             0        0.142850    3.539008    2.530273
   11          6             0        1.899995    1.596393    3.404962
   12          1             0        2.316909    0.592816    3.471688
   13          1             0        2.287016    2.076900    2.507554
   14          1             0        2.248240    2.157094    4.269360
   15          1             0        0.153191    3.509425    4.294437
 --------------------------------------------------------------------
     1 basis functions        1 primitive gaussians
     1 alpha electrons        1 beta electrons
 
 Harmonic frequencies (cm**-1), IR intensities (KM/Mole),
 Raman scattering activities (A**4/amu), Raman depolarization ratios,
 reduced masses (AMU), force constants (mDyne/A) and normal coordinates:
                      1                      2                      3
                        a                      a                      a 
 Frequencies --    89.7329               200.8903               227.6343
 Red. masses --    99.0000                99.0000                99.0000
 Frc consts  --    99.0000                99.0000                99.0000
 IR Inten    --    99.0000                99.0000                99.0000
 Raman Activ --     0.0000                 0.0000                 0.0000
 Depolar     --     0.0000                 0.0000                 0.0000
 Atom AN      X      Y      Z        X      Y      Z        X      Y      Z
   1   8    -0.44  -0.11   0.17    -0.05  -0.01   0.09     0.10  -0.05   0.10
   2   6     0.32   0.06  -0.24     0.03   0.01  -0.07    -0.11  -0.08   0.04
   3   1     0.11   0.17  -0.22     0.01   0.02  -0.05    -0.04  -0.07   0.06
   4   1     0.28  -0.09  -0.04     0.04  -0.02  -0.02    -0.09  -0.02  -0.01
   5   6     0.12  -0.03  -0.10     0.01  -0.00  -0.06    -0.04   0.02  -0.04
   6   1     0.05  -0.07  -0.06     0.01  -0.03  -0.03    -0.01   0.01  -0.01
   7   1    -0.13  -0.17   0.22    -0.02  -0.01   0.10     0.03   0.02  -0.10
   8   6    -0.13  -0.14   0.14    -0.02  -0.02   0.16     0.11   0.08  -0.03
   9   1    -0.04  -0.10   0.08    -0.01  -0.00  -0.38     0.03   0.07  -0.33
  10   1    -0.10   0.01   0.05     0.34   0.17   0.29     0.31   0.11   0.15
  11   6     0.12   0.25  -0.02     0.02   0.03  -0.14    -0.05   0.02  -0.06
  12   1     0.09   0.09  -0.17     0.01   0.03   0.27     0.00  -0.01  -0.45
  13   1     0.01   0.24   0.08    -0.00  -0.27  -0.19    -0.04   0.39   0.18
  14   1    -0.01  -0.05   0.09     0.01   0.28  -0.22    -0.01  -0.36   0.22
  15   1    -0.03  -0.05   0.05    -0.35  -0.19   0.29    -0.21  -0.10   0.15
                      4                      5                      6
                        a                      a                      a 
 Frequencies --   347.9566               264.0867               358.5544
 Red. masses --    99.0000                99.0000                99.0000
 Frc consts  --    99.0000                99.0000                99.0000
 IR Inten    --    99.0000                99.0000                99.0000
 Raman Activ --     0.0000                 0.0000                 0.0000
 Depolar     --     0.0000                 0.0000                 0.0000
 Atom AN      X      Y      Z        X      Y      Z        X      Y      Z
   1   8     0.04  -0.07  -0.32    -0.32  -0.10  -0.36     0.02   0.28  -0.04
   2   6    -0.12  -0.10   0.06    -0.05  -0.05   0.26     0.06   0.20   0.19
   3   1    -0.03  -0.06   0.01    -0.02   0.02   0.18     0.02   0.07   0.03
   4   1    -0.03   0.02   0.04    -0.09   0.04   0.07     0.04   0.10   0.08
   5   6    -0.12  -0.13   0.08     0.21  -0.06   0.18     0.12   0.03   0.20
   6   1    -0.02  -0.01   0.04     0.08   0.02   0.09     0.05   0.03   0.08
   7   1    -0.01   0.01   0.76    -0.08  -0.08  -0.24    -0.01   0.06   0.41
   8   6     0.26   0.02   0.01    -0.01  -0.13  -0.26    -0.31  -0.15  -0.22
   9   1     0.07   0.13   0.01    -0.00  -0.08  -0.22    -0.09  -0.19  -0.18
  10   1     0.13  -0.05  -0.01     0.09  -0.07  -0.06    -0.07  -0.07  -0.07
  11   6    -0.12   0.20  -0.02     0.21   0.30   0.24     0.15  -0.31  -0.14
  12   1     0.09   0.11  -0.02     0.13   0.12   0.11    -0.04  -0.13  -0.15
  13   1    -0.11   0.10  -0.01     0.04   0.08   0.06     0.01  -0.06  -0.04
  14   1    -0.07   0.09  -0.01    -0.00   0.15   0.06     0.16  -0.19  -0.02
  15   1     0.14  -0.01  -0.01    -0.15   0.03  -0.06    -0.26   0.07  -0.07
                      7                      8                      9
                        a                      a                      a 
 Frequencies --   428.0384               484.0714               914.5743
 Red. masses --    99.0000                99.0000                99.0000
 Frc consts  --    99.0000                99.0000                99.0000
 IR Inten    --    99.0000                99.0000                99.0000
 Raman Activ --     0.0000                 0.0000                 0.0000
 Depolar     --     0.0000                 0.0000                 0.0000
 Atom AN      X      Y      Z        X      Y      Z        X      Y      Z
   1   8    -0.01  -0.12  -0.13     0.03   0.38   0.32     0.04   0.02  -0.05
   2   6     0.35  -0.01   0.17    -0.09   0.22  -0.11    -0.23  -0.08   0.31
   3   1     0.11   0.07  -0.18    -0.02   0.08  -0.07    -0.03   0.13  -0.38
   4   1     0.31   0.03   0.16     0.02   0.07  -0.00     0.38   0.01   0.28
   5   6    -0.21  -0.02   0.42    -0.08  -0.38   0.07    -0.05  -0.01  -0.14
   6   1    -0.06   0.03   0.14    -0.03  -0.17  -0.03     0.15   0.20   0.16
   7   1    -0.01  -0.13  -0.24     0.02   0.15  -0.13     0.03   0.20  -0.05
   8   6     0.05   0.12  -0.01     0.21  -0.41  -0.15     0.04  -0.06  -0.10
   9   1     0.01   0.13  -0.05     0.06  -0.03  -0.08     0.01  -0.06   0.06
  10   1     0.10  -0.08  -0.04     0.13  -0.23  -0.09    -0.06   0.15   0.06
  11   6    -0.26   0.01  -0.23    -0.12   0.09  -0.02     0.04  -0.02  -0.16
  12   1    -0.07   0.00  -0.15     0.13   0.10   0.00     0.03   0.01   0.11
  13   1    -0.25  -0.00  -0.15    -0.13   0.08  -0.02     0.27   0.04   0.10
  14   1     0.11   0.01  -0.14    -0.10   0.11  -0.03    -0.28  -0.01   0.08
  15   1     0.02   0.09  -0.04     0.08  -0.05  -0.09     0.04  -0.18   0.06
                     10                     11                     12
                        a                      a                      a 
 Frequencies --  1495.6965              1500.3724              1513.4167
 Red. masses --    99.0000                99.0000                99.0000
 Frc consts  --    99.0000                99.0000                99.0000
 IR Inten    --    99.0000                99.0000                99.0000
 Raman Activ --     0.0000                 0.0000                 0.0000
 Depolar     --     0.0000                 0.0000                 0.0000
 Atom AN      X      Y      Z        X      Y      Z        X      Y      Z
   1   8    -0.01   0.00  -0.00    -0.00  -0.01   0.00     0.00  -0.00   0.00
   2   6    -0.02   0.01  -0.05     0.01  -0.01   0.02     0.01  -0.01   0.00
   3   1    -0.01  -0.07   0.14     0.00  -0.00  -0.07     0.00   0.03  -0.03
   4   1     0.14  -0.03   0.04    -0.06   0.03  -0.01    -0.04  -0.01  -0.02
   5   6    -0.03   0.03   0.00     0.06  -0.01  -0.01    -0.00  -0.03   0.06
   6   1    -0.00  -0.00  -0.00    -0.04   0.03  -0.01    -0.03  -0.01   0.00
   7   1     0.00   0.03  -0.00     0.00   0.01   0.00     0.00   0.02   0.01
   8   6    -0.06  -0.03  -0.12     0.15   0.07  -0.11    -0.05  -0.01   0.07
   9   1    -0.00  -0.12   0.37     0.01   0.25   0.36    -0.00  -0.08  -0.26
  10   1     0.36   0.04   0.16    -0.09  -0.32  -0.25    -0.07   0.12   0.05
  11   6     0.02   0.12   0.13    -0.02  -0.06   0.06     0.02  -0.11   0.15
  12   1     0.14   0.04  -0.41    -0.08  -0.05  -0.19    -0.18  -0.12  -0.51
  13   1     0.07  -0.47  -0.22     0.12   0.06   0.09     0.27   0.03   0.15
  14   1    -0.25  -0.04   0.14    -0.02   0.23  -0.14    -0.14   0.52  -0.28
  15   1    -0.10   0.16  -0.07    -0.53  -0.20   0.32     0.26   0.02  -0.10
                     13                     14                     15
                        a                      a                      a 
 Frequencies --  1478.7098              1505.4910               852.8631
 Red. masses --    99.0000                99.0000                99.0000
 Frc consts  --    99.0000                99.0000                99.0000
 IR Inten    --    99.0000                99.0000                99.0000
 Raman Activ --     0.0000                 0.0000                 0.0000
 Depolar     --     0.0000                 0.0000                 0.0000
 Atom AN      X      Y      Z        X      Y      Z        X      Y      Z
   1   8    -0.01   0.03  -0.01     0.00  -0.00   0.00     0.05  -0.13   0.02
   2   6    -0.15   0.10  -0.19    -0.01  -0.02  -0.02    -0.37  -0.07  -0.32
   3   1    -0.04  -0.31   0.57    -0.00   0.00   0.00    -0.09   0.01  -0.32
   4   1     0.62  -0.15   0.19     0.01   0.01   0.01     0.12  -0.05  -0.01
   5   6    -0.01   0.01  -0.01     0.04   0.06   0.06    -0.10  -0.10   0.28
   6   1    -0.00  -0.01  -0.01    -0.01  -0.03  -0.02    -0.00  -0.07   0.05
   7   1    -0.00   0.01  -0.00     0.00   0.00  -0.00     0.03   0.17  -0.03
   8   6     0.02   0.02   0.02     0.10   0.02   0.12    -0.13   0.24   0.11
   9   1     0.00   0.02  -0.07     0.00   0.19  -0.41    -0.04   0.11  -0.07
  10   1    -0.08  -0.05  -0.06    -0.47  -0.08  -0.22     0.04  -0.12  -0.06
  11   6     0.03  -0.05  -0.01    -0.01   0.12   0.05     0.43  -0.04   0.07
  12   1    -0.08  -0.03   0.05     0.18   0.07  -0.20     0.23   0.03  -0.02
  13   1    -0.02   0.13   0.06     0.01  -0.40  -0.21    -0.00   0.03  -0.01
  14   1     0.02   0.07  -0.06    -0.18  -0.17   0.19     0.16   0.03  -0.02
  15   1    -0.00  -0.07   0.05     0.05  -0.24   0.13    -0.09   0.25  -0.06
                     16                     17                     18
                        a                      a                      a 
 Frequencies --   947.8588               970.5989               988.3174
 Red. masses --    99.0000                99.0000                99.0000
 Frc consts  --    99.0000                99.0000                99.0000
 IR Inten    --    99.0000                99.0000                99.0000
 Raman Activ --     0.0000                 0.0000                 0.0000
 Depolar     --     0.0000                 0.0000                 0.0000
 Atom AN      X      Y      Z        X      Y      Z        X      Y      Z
   1   8    -0.01   0.02   0.01    -0.04   0.16   0.02     0.01   0.01  -0.00
   2   6     0.01  -0.01   0.01     0.19  -0.03   0.19    -0.14  -0.06  -0.08
   3   1     0.00   0.01   0.01     0.04  -0.04   0.13    -0.03   0.03  -0.10
   4   1    -0.00   0.00   0.00    -0.04   0.06   0.05     0.04  -0.03   0.00
   5   6     0.07  -0.11  -0.01    -0.21  -0.26  -0.13    -0.09   0.16   0.05
   6   1    -0.26   0.16   0.00    -0.09  -0.08  -0.05    -0.16   0.19   0.05
   7   1     0.00   0.02  -0.02    -0.02  -0.08  -0.01     0.01   0.11   0.00
   8   6     0.13   0.18  -0.12    -0.34   0.12  -0.14     0.04  -0.28  -0.20
   9   1     0.04  -0.33   0.08    -0.09   0.49   0.08     0.01   0.00   0.11
  10   1    -0.25   0.35   0.06     0.10   0.09   0.07    -0.02   0.16   0.09
  11   6    -0.03  -0.25   0.11     0.30  -0.11  -0.01     0.14   0.21   0.24
  12   1     0.44   0.12  -0.07     0.25   0.04  -0.00    -0.22  -0.07  -0.13
  13   1    -0.40   0.12  -0.05     0.02   0.03   0.00    -0.16  -0.09  -0.10
  14   1    -0.07   0.14  -0.08     0.00   0.04  -0.01     0.52  -0.05  -0.07
  15   1    -0.12  -0.04   0.08     0.22  -0.27   0.03     0.15  -0.38   0.08
                     19                     20                     21
                        a                      a                      a 
 Frequencies --  1211.0533              1152.8643              1116.2435
 Red. masses --    99.0000                99.0000                99.0000
 Frc consts  --    99.0000                99.0000                99.0000
 IR Inten    --    99.0000                99.0000                99.0000
 Raman Activ --     0.0000                 0.0000                 0.0000
 Depolar     --     0.0000                 0.0000                 0.0000
 Atom AN      X      Y      Z        X      Y      Z        X      Y      Z
   1   8     0.07   0.06   0.01     0.00  -0.04   0.07     0.08  -0.20   0.06
   2   6    -0.22   0.07   0.13    -0.03   0.04  -0.33    -0.05   0.40  -0.12
   3   1    -0.06  -0.23  -0.29    -0.01  -0.01   0.05    -0.04  -0.32  -0.08
   4   1     0.11   0.15   0.17    -0.08   0.16  -0.03    -0.13   0.32   0.05
   5   6     0.31   0.06  -0.30     0.30  -0.32   0.33    -0.28   0.12   0.14
   6   1     0.32  -0.08  -0.04     0.36  -0.01   0.25    -0.10   0.16   0.10
   7   1    -0.03  -0.37  -0.01     0.00  -0.00   0.02    -0.03  -0.48   0.00
   8   6    -0.11   0.01   0.05    -0.09   0.21  -0.23     0.09  -0.15  -0.05
   9   1    -0.02   0.13  -0.04    -0.02   0.10   0.11     0.02  -0.11   0.03
  10   1     0.08  -0.08  -0.01    -0.07   0.30   0.09    -0.03   0.02   0.01
  11   6    -0.15  -0.08   0.25    -0.20   0.05  -0.04     0.19  -0.02  -0.12
  12   1     0.04   0.00  -0.11    -0.15  -0.03   0.04     0.08   0.02   0.05
  13   1    -0.32  -0.01  -0.06     0.04  -0.03   0.02     0.17   0.03   0.05
  14   1     0.12   0.07  -0.06    -0.06  -0.05   0.04    -0.11   0.01   0.03
  15   1     0.06   0.03  -0.04     0.05  -0.17   0.05     0.01  -0.09   0.02
                     22                     23                     24
                        a                      a                      a 
 Frequencies --  1179.0834              1082.6681              1334.7633
 Red. masses --    99.0000                99.0000                99.0000
 Frc consts  --    99.0000                99.0000                99.0000
 IR Inten    --    99.0000                99.0000                99.0000
 Raman Activ --     0.0000                 0.0000                 0.0000
 Depolar     --     0.0000                 0.0000                 0.0000
 Atom AN      X      Y      Z        X      Y      Z        X      Y      Z
   1   8    -0.03   0.01  -0.01    -0.13   0.56   0.01    -0.08  -0.05   0.02
   2   6     0.04  -0.08  -0.21     0.12  -0.57  -0.12    -0.03  -0.04   0.01
   3   1     0.01   0.03   0.05     0.01  -0.40  -0.12    -0.01  -0.30  -0.16
   4   1    -0.06  -0.12  -0.14    -0.03   0.03   0.01     0.03   0.24   0.14
   5   6     0.16   0.43   0.15    -0.11   0.00   0.07     0.48   0.00   0.13
   6   1     0.10   0.37   0.22     0.04   0.12   0.12    -0.59   0.00  -0.25
   7   1     0.01   0.12  -0.00    -0.06  -0.18  -0.01     0.00   0.18   0.00
   8   6    -0.15  -0.27   0.05     0.09   0.02   0.05    -0.12  -0.03   0.01
   9   1    -0.04   0.22   0.00     0.02  -0.12  -0.01    -0.02   0.13   0.01
  10   1     0.18  -0.18   0.02    -0.04   0.01  -0.01     0.06   0.00   0.04
  11   6    -0.09  -0.24  -0.03     0.06   0.05  -0.02    -0.04   0.05  -0.13
  12   1     0.25   0.06   0.03    -0.03  -0.01   0.02    -0.13  -0.03   0.06
  13   1    -0.13   0.11   0.04     0.09  -0.01   0.02     0.02   0.02  -0.01
  14   1    -0.21   0.08  -0.02     0.01  -0.01   0.02    -0.13  -0.03   0.04
  15   1     0.14  -0.12  -0.02    -0.06   0.07   0.01     0.06   0.02  -0.04
                     25                     26                     27
                        a                      a                      a 
 Frequencies --  1318.7948              1290.1429              1363.1652
 Red. masses --    99.0000                99.0000                99.0000
 Frc consts  --    99.0000                99.0000                99.0000
 IR Inten    --    99.0000                99.0000                99.0000
 Raman Activ --     0.0000                 0.0000                 0.0000
 Depolar     --     0.0000                 0.0000                 0.0000
 Atom AN      X      Y      Z        X      Y      Z        X      Y      Z
   1   8     0.18   0.17  -0.03    -0.04  -0.10   0.07    -0.12  -0.06  -0.04
   2   6    -0.21   0.04   0.03     0.10  -0.05  -0.13     0.16   0.35   0.17
   3   1    -0.04   0.28   0.02     0.03   0.14   0.17     0.02  -0.52  -0.20
   4   1     0.06  -0.39  -0.15    -0.02   0.47   0.20    -0.06  -0.38  -0.25
   5   6     0.19  -0.27   0.01    -0.04  -0.27  -0.33    -0.01  -0.25  -0.11
   6   1    -0.30   0.33   0.11    -0.04   0.49   0.24     0.07   0.24   0.18
   7   1    -0.02  -0.49  -0.01     0.01   0.16   0.00     0.01   0.29  -0.01
   8   6    -0.06   0.00   0.07    -0.02   0.00   0.20    -0.02   0.06   0.05
   9   1    -0.02   0.11  -0.01    -0.01   0.05  -0.09    -0.00  -0.01  -0.04
  10   1     0.01  -0.02   0.01     0.01  -0.12  -0.03    -0.01  -0.04  -0.02
  11   6     0.02   0.09  -0.06     0.01   0.06   0.07     0.01   0.05   0.04
  12   1    -0.13  -0.03   0.01    -0.04  -0.01  -0.05    -0.05  -0.02  -0.02
  13   1     0.03  -0.03  -0.02    -0.03  -0.04  -0.03    -0.03  -0.04  -0.03
  14   1    -0.07  -0.03   0.04     0.11  -0.02  -0.01     0.03  -0.03   0.02
  15   1    -0.03   0.08  -0.02    -0.06   0.19  -0.05     0.01   0.02  -0.00
                     28                     29                     30
                        a                      a                      a 
 Frequencies --  1409.3978              1422.0439              2862.2695
 Red. masses --    99.0000                99.0000                99.0000
 Frc consts  --    99.0000                99.0000                99.0000
 IR Inten    --    99.0000                99.0000                99.0000
 Raman Activ --     0.0000                 0.0000                 0.0000
 Depolar     --     0.0000                 0.0000                 0.0000
 Atom AN      X      Y      Z        X      Y      Z        X      Y      Z
   1   8    -0.01  -0.01  -0.00     0.01  -0.00   0.01     0.00  -0.02   0.00
   2   6     0.03  -0.00   0.01     0.01  -0.03  -0.01    -0.12  -0.10   0.20
   3   1     0.01  -0.00  -0.00     0.00   0.08  -0.01     0.05  -0.02   0.04
   4   1    -0.02   0.01  -0.01    -0.04   0.05   0.00     0.36   0.42  -0.79
   5   6    -0.09   0.05  -0.01    -0.02  -0.02  -0.01     0.00   0.01  -0.01
   6   1     0.10  -0.05   0.01     0.02   0.01   0.02    -0.02  -0.03   0.06
   7   1     0.00   0.04   0.01     0.00   0.00   0.01     0.00  -0.00  -0.00
   8   6     0.13  -0.27  -0.02    -0.11   0.30   0.01     0.00   0.00  -0.00
   9   1     0.01   0.33   0.02    -0.00  -0.38  -0.01     0.00  -0.00   0.00
  10   1    -0.19   0.28   0.11     0.19  -0.31  -0.14    -0.00  -0.00   0.01
  11   6     0.33  -0.02   0.02     0.29   0.01   0.00     0.00   0.00  -0.01
  12   1    -0.33  -0.15   0.01    -0.31  -0.14   0.02    -0.00   0.00  -0.00
  13   1    -0.37   0.08  -0.12    -0.34   0.06  -0.13    -0.00  -0.00   0.01
  14   1    -0.33   0.07   0.10    -0.31   0.04   0.11     0.00   0.00   0.00
  15   1    -0.20   0.26  -0.09     0.19  -0.31   0.12     0.00   0.00   0.00
                     31                     32                     33
                        a                      a                      a 
 Frequencies --  2942.1879              2977.6622              3016.8979
 Red. masses --    99.0000                99.0000                99.0000
 Frc consts  --    99.0000                99.0000                99.0000
 IR Inten    --    99.0000                99.0000                99.0000
 Raman Activ --     0.0000                 0.0000                 0.0000
 Depolar     --     0.0000                 0.0000                 0.0000
 Atom AN      X      Y      Z        X      Y      Z        X      Y      Z
   1   8     0.00  -0.00  -0.00    -0.00   0.01  -0.00     0.00  -0.00   0.00
   2   6    -0.00  -0.01   0.02    -0.25   0.01  -0.02    -0.00   0.00  -0.00
   3   1    -0.03   0.00   0.00     0.96  -0.05   0.02     0.02  -0.00   0.00
   4   1     0.03   0.03  -0.06    -0.06  -0.03   0.05    -0.00  -0.00   0.01
   5   6    -0.08  -0.13   0.21    -0.01  -0.01   0.01     0.00   0.01  -0.01
   6   1     0.31   0.47  -0.77     0.01   0.02  -0.03    -0.01  -0.02   0.03
   7   1     0.00  -0.00   0.00    -0.01   0.00  -0.00     0.00  -0.00  -0.00
   8   6     0.01   0.00  -0.01     0.01   0.00   0.01    -0.04  -0.03   0.03
   9   1    -0.02  -0.00  -0.00    -0.04  -0.00   0.00     0.08  -0.00   0.00
  10   1    -0.02  -0.03   0.05     0.00   0.01  -0.01     0.05   0.09  -0.14
  11   6    -0.00   0.01  -0.02     0.00  -0.00  -0.01    -0.03   0.27  -0.06
  12   1     0.01  -0.03  -0.00    -0.01   0.02  -0.00     0.31  -0.77   0.04
  13   1    -0.03  -0.03   0.06    -0.01  -0.01   0.02    -0.14  -0.14   0.33
  14   1     0.01   0.01   0.01     0.00   0.01   0.01    -0.06  -0.06  -0.16
  15   1     0.01   0.01   0.02    -0.00  -0.01  -0.02     0.01   0.02   0.05
                     34                     35                     36
                        a                      a                      a 
 Frequencies --  3029.7144              3019.7732              3034.4607
 Red. masses --    99.0000                99.0000                99.0000
 Frc consts  --    99.0000                99.0000                99.0000
 IR Inten    --    99.0000                99.0000                99.0000
 Raman Activ --     0.0000                 0.0000                 0.0000
 Depolar     --     0.0000                 0.0000                 0.0000
 Atom AN      X      Y      Z        X      Y      Z        X      Y      Z
   1   8     0.00  -0.00   0.00     0.00   0.00   0.00     0.00  -0.00   0.00
   2   6    -0.00   0.00  -0.00     0.01  -0.00  -0.00     0.01   0.00  -0.00
   3   1     0.01   0.00  -0.00    -0.03   0.00  -0.00    -0.03  -0.00  -0.00
   4   1    -0.01  -0.01   0.02    -0.00  -0.00   0.01     0.00   0.00  -0.00
   5   6     0.01   0.02  -0.03     0.01   0.00  -0.01     0.01   0.01  -0.00
   6   1    -0.03  -0.04   0.07    -0.01  -0.02   0.03    -0.01  -0.01   0.01
   7   1    -0.00   0.00  -0.00    -0.00   0.00  -0.00     0.00  -0.00  -0.00
   8   6     0.07   0.08  -0.25    -0.02  -0.01   0.05     0.20   0.11   0.12
   9   1    -0.09   0.01  -0.04     0.04  -0.00   0.01    -0.47  -0.00   0.02
  10   1    -0.28  -0.44   0.71     0.05   0.08  -0.13    -0.02  -0.06   0.14
  11   6     0.01   0.04  -0.05     0.09  -0.03  -0.23    -0.05  -0.01  -0.08
  12   1     0.03  -0.06  -0.00    -0.13   0.36  -0.06     0.07  -0.21   0.00
  13   1    -0.08  -0.10   0.18    -0.28  -0.39   0.68    -0.00   0.01  -0.02
  14   1     0.01   0.01   0.00     0.09   0.13   0.17     0.12   0.22   0.32
  15   1     0.11   0.15   0.20    -0.02  -0.03  -0.04    -0.20  -0.32  -0.57
                     37                     38                     39
                        a                      a                      a 
 Frequencies --  3039.9466              3041.5954              3546.5635
 Red. masses --    99.0000                99.0000                99.0000
 Frc consts  --    99.0000                99.0000                99.0000
 IR Inten    --    99.0000                99.0000                99.0000
 Raman Activ --     0.0000                 0.0000                 0.0000
 Depolar     --     0.0000                 0.0000                 0.0000
 Atom AN      X      Y      Z        X      Y      Z        X      Y      Z
   1   8     0.00  -0.00   0.00    -0.00  -0.00  -0.00     0.24  -0.02   0.01
   2   6    -0.01   0.00   0.00     0.01   0.00   0.00     0.01  -0.00   0.00
   3   1     0.02  -0.00   0.00    -0.02   0.00  -0.00    -0.01  -0.00   0.00
   4   1    -0.00  -0.00   0.00     0.00   0.00  -0.00    -0.00   0.00  -0.00
   5   6    -0.01  -0.00  -0.01     0.00  -0.00  -0.01    -0.00   0.00   0.00
   6   1    -0.00  -0.00   0.01    -0.01  -0.01   0.01     0.00  -0.00   0.00
   7   1    -0.00   0.00  -0.00     0.00   0.00   0.00    -0.96   0.11  -0.03
   8   6    -0.12  -0.04  -0.05     0.12  -0.10  -0.07     0.00  -0.00   0.00
   9   1     0.39   0.01  -0.01    -0.74  -0.03  -0.01    -0.00   0.00   0.00
  10   1    -0.01   0.01  -0.03     0.10   0.12  -0.23     0.00   0.00  -0.00
  11   6    -0.10  -0.08  -0.14    -0.02  -0.02  -0.03    -0.00   0.00  -0.00
  12   1     0.06  -0.19  -0.01     0.01  -0.02  -0.00     0.00  -0.00   0.00
  13   1     0.05   0.06  -0.15     0.00   0.00  -0.02    -0.00   0.00  -0.00
  14   1     0.24   0.42   0.65     0.05   0.08   0.13    -0.00  -0.00   0.00
  15   1     0.07   0.12   0.21     0.20   0.26   0.46    -0.00   0.00   0.00
