 
        ______________________________________
       |                                      |
       |           ==================         |
       |                 x T B                |
       |           ==================         |
       |               S. Grimme              |
       |        Universitaet Bonn, MCTC       |
       |         2015-18, Version 5.8.1       |
       |      Sun May  6 11:39:08 CEST 2018   |
       |______________________________________|
 
        This code comes without any warranty
        for non-commercial, academia use only.
        Preliminary GFN2 test version.
        Test license to: Dow Chemical Company
        Cite GFN-xTB work as:
        S. Grimme, C. Bannwarth, P. Shushkov
        JCTC, 13 (2017) 1989-2009
        for GFN2:
        C. Bannwarth, S. Ehlert, S. Grimme
        to be published.
        sTDA-xTB:
        S. Grimme  &  C. Bannwarth, JCP 145 (2016) 054103
        in the mass-spec context additionally:
        V. Asgeirsson, C.Bauer, S. Grimme, Chem. Sci. 8 (2017) 4879
 
        with help from
        P. Shushkov, G. Brandenburg, S. Dohm, J. Pisarek,
        F. März, M. Checinski, S. Ehrlich, S. Spicher, 
        P. Pracht, E. Caldeweyher, S. Ehlert, and C. Bannwarth.
 
        usage        :
        xtb <coord_file> [options]
        where <coord_file> is a valid file of TM)
        (*coord, Bohr) or xmol (*xyz, Angstroem)
        format.

        options:
        -chrg <int>   : molecular charge
        -uhf  <int>   : # of unpaired electrons(=2*S)
        -nox          : skip second, extended part in sTDA-xTB
        -pop          : do population analysis
                      : (default for -nox)
        -mowr <real>  : cut MO write above (def.3 Eh)
        -molden       : write formatted molden file
        -parx <file>  : read parameters for sTDA-xTB
                        calc (def:~/.param_stda2.xtb)
        -parv <file>  : read parameters for vTB part in
                        sTDA-xTB (def: ~/.param_stda1.xtb)
        -xtemp <real> : el. temp for xTB (def. 0 K)
        -etemp <real> : el. temp for GFN (def. 300 K)
        -fod          : calculate the FOD and write
                        molden.input file with
                        appropriate occupations
                        for plotting. Def. T=12500 K
 
        -gfn1         : use GFN-xTB
        -gfn2         : use GFN2-xTB
        -gfn2d3       : GFN2-xTB with D3 instead of D4
        -grad         : GFNn-xTB gradient
        -acc <real>   : GFNn-xTB accuracy (def. 1.0)
        -opt [level]  : optimize at GFNn-xTB
                      : level=crude,vloose,loose,
                      :       tight,vtight
        -hess         : compute Hessian at GFNn-xTB
        -ohess        : optimize and compute Hessian
        -omd          : optimize and do MD
        -siman        : conformational search
        -screen       : opt. loop over ensemble
        -gmd          : annealed MD for GMD procedure
        -modef        : vib mode following
        -gbsa [string1] [string2]
                        use GBSA implicit solvent
                        for solvent [string1] and
                        solvation state [string2]=
                        reference, bar1M (default=1M)
        additional GFN/opt/MD/siman options read from
        $XTBHOME/.xtbrc or $set in coordinate file
 
       spin and charge state information can be on:
       <.CHRG> (charge) and <.UHF> (=nalpha-nbeta)
       -uhf and -chrg override the file info.
       useful machine settings:
       setenv MKL_NUM_THREADS <NCORE_ON_YOUR_MACHINE>
       setenv OMP_STACKSIZE 500m
       limit stacksize unlimited
 
       total energies in Eh, gaps/HL energies in eV
       please read REVISION and HOWTO files carefully
          72  days left until this code expires
 =============================
  # OMP threads =           2
 =============================
 
 xtbhome directory:/home/ua25450/dftb/
 
 argument            1 :-ohess
 
 name of molecule           :
 comment line               :
 number of atoms            :    18
 number of electrons        :    42
 charge                     :  0
 spin                       : 0.0
 first test random number   :  0.8588
 
 
 -----------------------------------------
  G F N (Geometry, Frequency, Non-covalent)
        parametrization, gfnver=           3
     D4 dispersion model
 /home/ua25450/dftb/.param_gfn2.xtb
 -----------------------------------------
      method parameters     
 k(s)        :  1.8500
 k(p)        :  2.2300
 k(d)        :  2.2300
 k(f)        :  2.0000
 kEN (H0ij)  : -2.0000
 D3 a1       :  0.5200
 D3 a2       :  5.0000
 D3 s8       :  2.7000
 D3atm       :  5.0000
 alphaj      :  2.0000
 
     -------------------------
     ! NO SOLVENT MODEL USED !
     -------------------------
 
 doing EN charges ...
 sum q :  0.5551115D-15
 point charge moment (au)
     X       Y       Z   
  -0.0001   0.0014   0.0016  total (Debye):    0.005
 
            Z     q(EN)     CN     RAES       Cart. coordinates
     1  C   4.0   -0.04    3.27    3.05    -2.16499    -0.67371     0.00322
     2  C   4.0   -0.04    3.34    3.06     0.45077    -0.68730     0.01173
     3  C   4.0    0.00    3.31    3.06     1.78709     1.56863     0.00134
     4  C   4.0   -0.04    3.41    3.08     0.44960     3.82806    -0.01909
     5  C   4.0    0.00    3.31    3.06    -2.17102     3.87127    -0.02980
     6  C   4.0   -0.04    3.34    3.06    -3.47036     1.58895    -0.01711
     7  H   1.0    0.04    1.01    1.43    -3.19008    -2.43982     0.00927
     8  H   1.0    0.04    1.01    1.43     1.45911    -2.46346     0.02360
     9  H   1.0    0.04    1.02    1.43     1.48061     5.59341    -0.02908
    10  H   1.0    0.04    1.01    1.43    -5.51278     1.58950    -0.02567
    11  C   4.0   -0.14    4.07    3.75    -3.57513     6.33220    -0.00960
    12  H   1.0    0.05    1.00    1.43    -5.37906     6.15445    -0.97895
    13  H   1.0    0.04    1.00    1.43    -3.95162     6.91188     1.93230
    14  H   1.0    0.05    1.00    1.43    -2.47456     7.81432    -0.91324
    15  C   4.0   -0.14    4.07    3.75     4.62042     1.59963     0.00470
    16  H   1.0    0.04    1.00    1.43     5.32883     2.53383    -1.68799
    17  H   1.0    0.04    1.00    1.43     5.32583     2.63848     1.63609
    18  H   1.0    0.05    1.00    1.43     5.37818    -0.30896     0.06424
 
  Z AO/shell   Hii/eV     exponent
  1     Wed Apr 25 08:07:45 CEST 2018   EN: 2.200 GM2: 0.406  GM3: 0.0800  RAES: 1.40
     1s    -10.707211    1.230000
  6     Wed Apr 25 08:07:45 CEST 2018   EN: 2.550 GM2: 0.538  GM3: 0.1500  RAES: 3.00
     2s    -13.970922    2.096432
     2p    -10.063292    1.800000
 
Molecule has no symmetry elements
It seems to be the C1 point group
c1  symmetry found (for desy threshold:  0.10E+00) used in thermo
 no old-style atom pair restraing (fixing) potential
 
             =======================================
             |                                     |
             |        S C C  calculation           |
             |                                     |
             =======================================
 #proc     :            2
 Ncao      :           42
 Nao       :           42
 Nel       :           42
 T(el)     :   300.0
 intcut    :    25.0
 scfconv   :  0.100E-05
   qconv   :  0.100E-03
 intneglect:  0.100E-07
 broydamp  :      0.400
 Nshell    :           26
  q data taken from xtbrestart
  CAMM data taken from xtbrestart
 iter      E             dE          RMSdq      gap      omega  full diag
   1    -22.6343919 -0.226344E+02  0.146E-06    4.65       0.0  T
   2    -22.6343919 -0.355271E-14  0.881E-07    4.65   26746.8  T
   3    -22.6343919  0.710543E-14  0.478E-07    4.65   49274.5  T
speedup  1.00
cpu  time for SCC    0.01 s
wall time for SCC    0.01 s

          eigenvalues
 #    :           9         10         11         12         13         14         15         16
 occ. :        2.000      2.000      2.000      2.000      2.000      2.000      2.000      2.000
 eps  :       -13.656    -13.436    -13.279    -13.120    -12.825    -12.646    -12.590    -12.188
 #    :          17         18         19         20         21         22         23         24
 occ. :        2.000      2.000      2.000      2.000      2.000      0.000      0.000      0.000
 eps  :       -12.154    -11.364    -11.242    -10.599    -10.434     -5.783     -5.716     -2.296
 #    :          25         26         27         28         29         30         31         32
 occ. :        0.000      0.000      0.000      0.000      0.000      0.000      0.000      0.000
 eps  :         2.717      3.366      3.920      4.155      4.759      5.261      5.547      5.716
 

   #   Z            q   n(s)   n(p)   n(d)      C6AA      α(0)    relVol
   1   6 C     -0.033  1.080  2.953  0.000    28.834     8.814     0.713
   2   6 C     -0.044  1.078  2.966  0.000    29.102     8.857     0.717
   3   6 C      0.016  1.083  2.902  0.000    27.646     8.633     0.699
   4   6 C     -0.050  1.079  2.971  0.000    29.212     8.873     0.718
   5   6 C      0.016  1.082  2.902  0.000    27.646     8.633     0.699
   6   6 C     -0.045  1.078  2.967  0.000    29.108     8.858     0.717
   7   1 H      0.026  0.974  0.000  0.000     2.639     2.540     0.503
   8   1 H      0.025  0.975  0.000  0.000     2.650     2.545     0.504
   9   1 H      0.027  0.973  0.000  0.000     2.624     2.533     0.501
  10   1 H      0.026  0.974  0.000  0.000     2.643     2.542     0.503
  11   6 C     -0.108  1.035  3.073  0.000    22.690     6.801     0.550
  12   1 H      0.041  0.959  0.000  0.000     2.432     2.438     0.482
  13   1 H      0.045  0.955  0.000  0.000     2.377     2.411     0.477
  14   1 H      0.041  0.959  0.000  0.000     2.436     2.440     0.483
  15   6 C     -0.108  1.035  3.073  0.000    22.690     6.801     0.550
  16   1 H      0.044  0.956  0.000  0.000     2.392     2.419     0.479
  17   1 H      0.044  0.956  0.000  0.000     2.395     2.420     0.479
  18   1 H      0.039  0.961  0.000  0.000     2.457     2.451     0.485

 Mol. C6AA /au*bohr^6 :       3291.682866
 Mol. C8AA /au*bohr^6 :      77559.419142
 Mol. a(0) /au        :         91.009178

 
 Wiberg/Mayer (AO) data. WBOs > 0.1 written file <wbo>
 largest (>0.05) Wiberg bond orders for each atom
           total WBO             WBO to atom ...
     1  C   3.993    C    6 1.449    C    2 1.437    H    7 0.971    C    4 0.109
     2  C   3.992    C    1 1.437    C    3 1.416    H    8 0.969    C    5 0.106
     3  C   3.989    C    2 1.416    C    4 1.411    C   15 1.024    C    6 0.107
     4  C   3.991    C    5 1.424    C    3 1.411    H    9 0.969    C    1 0.109
     5  C   3.989    C    4 1.424    C    6 1.404    C   11 1.024    C    2 0.106
     6  C   3.992    C    1 1.449    C    5 1.404    H   10 0.970    C    3 0.107
     7  H   0.999    C    1 0.971
     8  H   0.999    C    2 0.969
     9  H   0.999    C    4 0.969
    10  H   0.999    C    6 0.970
    11  C   3.996    C    5 1.024    H   14 0.983    H   12 0.982    H   13 0.968
    12  H   0.998    C   11 0.982
    13  H   0.998    C   11 0.968
    14  H   0.998    C   11 0.983
    15  C   3.996    C    3 1.024    H   18 0.986    H   17 0.974    H   16 0.973
    16  H   0.998    C   15 0.973
    17  H   0.998    C   15 0.974
    18  H   0.998    C   15 0.986
 
molecular dipole:
                 x           y           z       tot (Debye)
 q only:        0.094       0.178       0.010
   full:        0.220       0.195       0.020       0.558
molecular quadrupole (traceless):
                xx          xy          yy          xz          yz          zz
 q only:        1.007      -0.648       1.209      -0.063       0.100      -2.216
  q+dip:        2.480      -0.213       3.172      -0.111       0.166      -5.652
   full:        1.437      -0.417       1.916      -0.118       0.184      -3.353
 SCC converged in            3  cycles
 
SCC energy    :     -22.6343919
rep           :       0.4133065
ES            :       0.0030707
AES           :       0.0047194
AXC           :       0.0146198
disp          :      -0.0131798
XB            :       0.0000000
fix           :       0.0000000
total E       :     -22.2210513
atomizationE  :       5.3031945     3327.81
(atE without considerung molecular charge,
 total energy contains solvation terms)
H-L gap (eV)  :          4.6512
 
             =======================================
             |                                     |
             |    Approximate Normal Coordinate    |
             |   Rational Function Optimization    |
             |                                     |
             =======================================
Ref. for RF algo: F.Eckert, P.Pulay, H.-J.Werner
                  J.Comput.Chem. 18 (1997) 1473.
ANC idea implemented by S. Grimme in the 2000ers (unpublished)
restraining potential by S. Ehrlich.
dumping coords to <xtbopt.coord> and <xtbopt.log
 optlevel               1
 Maxcycle             200
 Maxmicro              20
 Econv         1.000000000000000E-006
 Gconv         8.000000000000000E-004
 Maxdispl       1.00000000000000     
 Hlow          1.000000000000000E-002
 S6             20.0000000000000     
 Nvar               48

generating ANC from read Hessian ...
 Shifting diagonal of input Hessian by   1.000822230024384E-002
 Lowest  eigenvalues of input Hessian
    0.010000   -0.000000   -0.000000   -0.000000    0.000000    0.000000
    0.000000    0.010015    0.014218    0.014749    0.017243    0.024765
    0.024999    0.039546    0.041158    0.047443    0.048560    0.062996
 Highest eigenvalues
    0.812843    0.966254    1.033046    1.063043    1.188755    1.194084
 
cpu  time for ANC gen    0.01 s
wall time for ANC gen    0.01 s
................................................................................
.............................. CYCLE    1 ......................................
................................................................................
  q data taken from xtbrestart
  CAMM data taken from xtbrestart
   1    -22.6343919 -0.226344E+02  0.813E-08    4.65       0.0  T
   2    -22.6343919  0.710543E-14  0.469E-08    4.65  100000.0  T
   3    -22.6343919  0.710543E-14  0.254E-08    4.65  100000.0  T
speedup  1.00
cpu  time for SCC    0.00 s
wall time for SCC    0.00 s
speedup  1.00
cpu  time for grad    0.00 s
wall time for grad    0.00 s
 E :    -22.22105128  G :  0.000197    pred/act E change:  0.000D+00 -0.111D-11
Maxdispl :   0.0015   ||displ|| :   0.0022   Lambda : -0.140D-06
Largest |displ|/coords:  0.0015 (   2)  0.0010 (   3)  0.0008 (   5)
ancopt converged in          1 cycles
total energy gain (kcal):      0.0000
================
 final structure:
================
    18
        -22.22105128
C          -1.14566101057720   -0.35651410898302    0.00170262482159
C           0.23853751596860   -0.36370385508698    0.00620612221966
C           0.94568681046016    0.83008258549554    0.00071078103314
C           0.23791876552257    2.02572048106959   -0.01010118290357
C          -1.14885519380823    2.04858745337343   -0.01576893974532
C          -1.83643724923848    0.84083405990264   -0.00905190940223
H          -1.68811582032502   -1.29109654080379    0.00490507706852
H           0.77212946188775   -1.30360789634529    0.01249008465140
H           0.78350534460036    2.95990435046877   -0.01538688034058
H          -2.91723961445705    0.84112854561555   -0.01358194864265
C          -1.89187523500874    3.35085888542352   -0.00508150725683
H          -2.84647766850375    3.25679606332818   -0.51803899175314
H          -2.09110764394171    3.65761118698080    1.02252716573768
H          -1.30948107517768    4.13516305655878   -0.48326811932943
C           2.44502028942659    0.84648982204781    0.00248738779334
H           2.81989431838334    1.34084334886830   -0.89324834523607
H           2.81830805913897    1.39622538758779    0.86578041693639
H           2.84600875564954   -0.16349610550162    0.03399529434811
 
 Bond Distances (Angstroems)
 ---------------------------
C1-C2=1.3842         C1-C6=1.3824         C1-H7=1.0806         C2-C1=1.3842         C2-C3=1.3875         C2-H8=1.0808         
C3-C2=1.3875         C3-C4=1.3895         C3-C15=1.4994        C4-C3=1.3895         C4-C5=1.3870         C4-H9=1.0818         
C5-C4=1.3870         C5-C6=1.3898         C5-C11=1.4994        C6-C1=1.3824         C6-C5=1.3898         C6-H10=1.0808        
H7-C1=1.0806         H8-C2=1.0808         H9-C4=1.0818         H10-C6=1.0808        C11-C5=1.4994        C11-H12=1.0878       
C11-H13=1.0908       C11-H14=1.0876       H12-C11=1.0878       H13-C11=1.0908       H14-C11=1.0876       C15-C3=1.4994        
C15-H16=1.0896       C15-H17=1.0894       C15-H18=1.0871       H16-C15=1.0896       H17-C15=1.0894       H18-C15=1.0871       
 C  H  Rav=1.0856 sigma=0.0039  Rmin=1.0806  Rmax=1.0908    10
 C  C  Rav=1.4149 sigma=0.0488  Rmin=1.3824  Rmax=1.4994     8
 
 selected bond angles (degree)
 --------------------
C6-C1-C2=120.28                H7-C1-C2=119.83                H7-C1-C6=119.89                C3-C2-C1=120.34                
H8-C2-C1=119.88                H8-C2-C3=119.78                C4-C3-C2=118.74                C15-C3-C2=121.27               
C15-C3-C4=120.00               C5-C4-C3=121.57                H9-C4-C3=119.09                H9-C4-C5=119.34                
C6-C5-C4=118.71                C11-C5-C4=120.65               C11-C5-C6=120.64               C5-C6-C1=120.37                
H10-C6-C1=120.00               H10-C6-C5=119.64               
 
 selected dihedral angles (degree)
 ---------------------------------
C3-C2-C1-C6=  0.04            C3-C2-C1-H7=179.93            H8-C2-C1-C6=180.13            H8-C2-C1-H7=  0.03            
C4-C3-C2-C1=359.96            C4-C3-C2-H8=179.87            C15-C3-C2-C1=180.13           C15-C3-C2-H8=  0.04           
C5-C4-C3-C2=  0.00            C5-C4-C3-C15=179.82           H9-C4-C3-C2=180.06            H9-C4-C3-C15=359.89           
C6-C5-C4-C3=  0.06            C6-C5-C4-H9=179.99            C11-C5-C4-C3=179.01           C11-C5-C4-H9=358.93           
C5-C6-C1-C2=  0.00            C5-C6-C1-H7=180.12            H10-C6-C1-C2=179.94           H10-C6-C1-H7=  0.04           
C1-C6-C5-C4=359.94            C1-C6-C5-C11=180.99           H10-C6-C5-C4=180.02           H10-C6-C5-C11=  1.07          
 
             =======================================
             |                                     |
             |        S C C  calculation           |
             |                                     |
             =======================================
 #proc     :            2
 Ncao      :           42
 Nao       :           42
 Nel       :           42
 T(el)     :   300.0
 intcut    :    25.0
 scfconv   :  0.100E-05
   qconv   :  0.100E-03
 intneglect:  0.100E-07
 broydamp  :      0.400
 Nshell    :           26
 iter      E             dE          RMSdq      gap      omega  full diag
   1    -22.6343919 -0.226344E+02  0.799E-09    4.65       0.0  T
   2    -22.6343919 -0.284217E-13  0.416E-09    4.65  100000.0  T
   3    -22.6343919  0.213163E-13  0.217E-09    4.65  100000.0  T
speedup  1.00
cpu  time for SCC    0.00 s
wall time for SCC    0.00 s

          eigenvalues
 #    :           9         10         11         12         13         14         15         16
 occ. :        2.000      2.000      2.000      2.000      2.000      2.000      2.000      2.000
 eps  :       -13.656    -13.436    -13.279    -13.120    -12.825    -12.646    -12.590    -12.188
 #    :          17         18         19         20         21         22         23         24
 occ. :        2.000      2.000      2.000      2.000      2.000      0.000      0.000      0.000
 eps  :       -12.154    -11.364    -11.242    -10.599    -10.434     -5.783     -5.716     -2.296
 #    :          25         26         27         28         29         30         31         32
 occ. :        0.000      0.000      0.000      0.000      0.000      0.000      0.000      0.000
 eps  :         2.717      3.366      3.920      4.155      4.759      5.261      5.547      5.716
 

   #   Z            q   n(s)   n(p)   n(d)      C6AA      α(0)    relVol
   1   6 C     -0.033  1.080  2.953  0.000    28.834     8.814     0.713
   2   6 C     -0.044  1.078  2.966  0.000    29.102     8.857     0.717
   3   6 C      0.016  1.083  2.902  0.000    27.646     8.633     0.699
   4   6 C     -0.050  1.079  2.971  0.000    29.212     8.873     0.718
   5   6 C      0.016  1.082  2.902  0.000    27.646     8.633     0.699
   6   6 C     -0.045  1.078  2.967  0.000    29.108     8.858     0.717
   7   1 H      0.026  0.974  0.000  0.000     2.639     2.540     0.503
   8   1 H      0.025  0.975  0.000  0.000     2.650     2.545     0.504
   9   1 H      0.027  0.973  0.000  0.000     2.624     2.533     0.501
  10   1 H      0.026  0.974  0.000  0.000     2.643     2.542     0.503
  11   6 C     -0.108  1.035  3.073  0.000    22.690     6.801     0.550
  12   1 H      0.041  0.959  0.000  0.000     2.432     2.438     0.482
  13   1 H      0.045  0.955  0.000  0.000     2.377     2.411     0.477
  14   1 H      0.041  0.959  0.000  0.000     2.436     2.440     0.483
  15   6 C     -0.108  1.035  3.073  0.000    22.690     6.801     0.550
  16   1 H      0.044  0.956  0.000  0.000     2.392     2.419     0.479
  17   1 H      0.044  0.956  0.000  0.000     2.395     2.420     0.479
  18   1 H      0.039  0.961  0.000  0.000     2.457     2.451     0.485

 Mol. C6AA /au*bohr^6 :       3291.682866
 Mol. C8AA /au*bohr^6 :      77559.419137
 Mol. a(0) /au        :         91.009178

 
 Wiberg/Mayer (AO) data. WBOs > 0.1 written file <wbo>
 largest (>0.05) Wiberg bond orders for each atom
           total WBO             WBO to atom ...
     1  C   3.993    C    6 1.449    C    2 1.437    H    7 0.971    C    4 0.109
     2  C   3.992    C    1 1.437    C    3 1.416    H    8 0.969    C    5 0.106
     3  C   3.989    C    2 1.416    C    4 1.411    C   15 1.024    C    6 0.107
     4  C   3.991    C    5 1.424    C    3 1.411    H    9 0.969    C    1 0.109
     5  C   3.989    C    4 1.424    C    6 1.404    C   11 1.024    C    2 0.106
     6  C   3.992    C    1 1.449    C    5 1.404    H   10 0.970    C    3 0.107
     7  H   0.999    C    1 0.971
     8  H   0.999    C    2 0.969
     9  H   0.999    C    4 0.969
    10  H   0.999    C    6 0.970
    11  C   3.996    C    5 1.024    H   14 0.983    H   12 0.982    H   13 0.968
    12  H   0.998    C   11 0.982
    13  H   0.998    C   11 0.968
    14  H   0.998    C   11 0.983
    15  C   3.996    C    3 1.024    H   18 0.986    H   17 0.974    H   16 0.973
    16  H   0.998    C   15 0.973
    17  H   0.998    C   15 0.974
    18  H   0.998    C   15 0.986
 
molecular dipole:
                 x           y           z       tot (Debye)
 q only:        0.094       0.178       0.010
   full:        0.099       0.195       0.020       0.558
molecular quadrupole (traceless):
                xx          xy          yy          xz          yz          zz
 q only:        1.007      -0.648       1.209      -0.063       0.100      -2.216
  q+dip:        2.480      -0.213       3.172      -0.111       0.166      -5.652
   full:        1.437      -0.417       1.916      -0.118       0.184      -3.353
 SCC converged in            3  cycles
 
SCC energy    :     -22.6343919
rep           :       0.4133065
ES            :       0.0030707
AES           :       0.0047194
AXC           :       0.0146198
disp          :      -0.0131798
XB            :       0.0000000
fix           :       0.0000000
total E       :     -22.2210513
atomizationE  :       5.3031945     3327.81
(atE without considerung molecular charge,
 total energy contains solvation terms)
H-L gap (eV)  :          4.6512
 !!!!!!!!!!!!!!!!!!!!!!!!!!!!!!!!!!!
 ! Note: the input coordinates are !
 ! NOT overwritten. The optimized  !
 ! ones are on file <xtbopt.coord> !
 ! (or on <xtbopt.xyz> if it was a !
 ! xyz file)                       !
 !!!!!!!!!!!!!!!!!!!!!!!!!!!!!!!!!!!
 
Molecule has no symmetry elements
It seems to be the C1 point group
c1  symmetry found (for desy threshold:  0.10E+00) used in thermo
  q data taken from xtbrestart
  CAMM data taken from xtbrestart
 
             =======================================
             |                                     |
             |         Numerical Hessian           |
             |                                     |
             =======================================
step length          :   0.00500
SCC accuracy         :   0.30000
Hessian scale factor :   1.00000
frozen atoms in %    :   0.00000    0
RMS gradient         :   0.00020
estimated CPU  time      0.03 min
estimated wall time      0.03 min
 
 writing file <hessian>.
 
 projected vibrational frequencies (cm-1)
eig.   :       -0.00    -0.00    -0.00    -0.00     0.00     0.00
eig.   :      -14.23    13.24   187.92   207.83   270.87   394.61
eig.   :      403.98   495.31   502.10   527.20   650.99   734.31
eig.   :      776.96   890.14   894.15   927.65   947.98   989.95
eig.   :     1008.54  1029.99  1032.52  1034.80  1139.67  1184.30
eig.   :     1194.91  1281.27  1286.54  1326.58  1404.32  1404.71
eig.   :     1443.87  1478.19  1483.02  1485.71  1488.87  1495.22
eig.   :     1597.40  1609.80  2993.74  3004.30  3016.63  3034.10
eig.   :     3035.85  3042.91  3064.15  3066.59  3072.58  3083.75
 reduced masses (amu)
   1:  9.91   2:  9.98   3:  9.80   4: 10.59   5: 10.35   6: 10.98   7:  1.28   8:  1.21
   9:  8.87  10:  8.99  11:  8.32  12:  8.39  13:  8.79  14: 10.34  15:  9.90  16: 10.73
  17:  9.98  18: 10.73  19:  2.89  20:  3.31  21:  3.77  22:  3.45  23:  8.24  24:  9.88
  25:  5.20  26:  4.59  27:  4.81  28:  4.78  29:  4.31  30:  4.63  31:  1.63  32:  3.52
  33:  9.89  34: 11.54  35:  3.14  36:  3.25  37:  9.37  38:  5.74  39:  1.57  40:  1.78
  41:  2.37  42:  5.29  43: 11.35  44: 11.49  45:  1.80  46:  1.93  47:  1.55  48:  1.85
  49:  1.49  50:  1.66  51:  1.81  52:  1.76  53:  1.83  54:  1.90
 IR intensities (amu)
   1:  0.03   2:  0.09   3:  0.04   4:  0.09   5:  0.10   6:  0.14   7:  0.01   8:  0.02
   9:  0.10  10:  0.02  11:  0.03  12:  0.03  13:  0.02  14:  0.02  15:  0.03  16:  0.05
  17:  0.07  18:  0.09  19:  0.19  20:  0.03  21:  0.01  22:  0.01  23:  0.17  24:  0.02
  25:  0.11  26:  0.16  27:  0.10  28:  0.02  29:  0.06  30:  0.39  31:  0.02  32:  0.06
  33:  0.25  34:  0.11  35:  0.17  36:  0.13  37:  0.17  38:  0.26  39:  0.06  40:  0.05
  41:  0.16  42:  0.30  43:  0.25  44:  0.53  45:  0.17  46:  0.19  47:  0.14  48:  0.16
  49:  0.16  50:  0.16  51:  0.24  52:  0.13  53:  0.31  54:  0.31
 output can be read by thermo (or use thermo option).
 writing <g98.out> molden fake output.
 recommended (thermochemical) frequency scaling factor: 1.0
                    ==================
                    thermo calculation
                    ==================
 inverting freq            1   14.2300486855243     
Nvib :   48 Nimag : 0  symmetry :   c1  rot number :  1  scale factor : 1.00 sthr :  50.
omega= 14.23     Gvib=    -2.180     Grot=    -1.428     Gused=    -1.433
omega= 13.24     Gvib=    -2.222     Grot=    -1.449     Gused=    -1.453
omega=187.92     Gvib=    -0.670     Grot=    -0.664     Gused=    -0.670
omega=207.83     Gvib=    -0.615     Grot=    -0.634     Gused=    -0.615
omega=270.87     Gvib=    -0.474     Grot=    -0.556     Gused=    -0.474
 
   temp. (K)  partition function   enthalpy   heat capacity  entropy
                                   cal/mol     cal/K/mol   cal/K/mol   J/K/mol
 298.15  VIB  0.195E+04             3468.087     24.031     21.604
         ROT  0.310E+06              888.752      2.981     28.105
         INT  0.605E+09             4356.839     27.012     49.709
         TR   0.106E+28             1481.254      4.968     39.878
         TOT                        5838.0930    31.9799    89.5878   374.8338
                     Eh         kcal/mol          kJ/mol 
ZPVE            0.151850         95.2870         398.679    
H(0)-H(T)+PV    0.930359E-02     5.83809         24.4265    
H(T)            0.161153         101.125         423.106    
T*S             0.425660E-01     26.7106         111.757    
G(T)            0.118587         74.4145         311.349    
    -22.10246420  <=== TOTAL FREE ENERGY in Eh incl. el.,ZPVE,RRHO,solv. parts
 
Eat (element increment corrected) /kcal :  2547.626
        -558.361  <=== HOF(298)/kcal, to be compared to exptl. data
imag cut-off (cm-1) :    5.00
 found            1  significant imaginary frequency
 writing imag mode distorted coords to <xtbhess.coord>
 for further optimization.
 
 normal mode %tage of torsion character
   1:  0.00   2:  0.00   3:  0.00   4:  0.00   5:  0.00   6:  0.00   7:  1.00   8:  0.98
   9:  0.74  10:  0.90  11:  0.15  12:  0.02  13:  0.98  14:  0.57  15:  0.85  16:  0.01
  17:  1.00  18:  0.00  19:  0.99  20:  0.99  21:  1.00  22:  1.00  23:  0.01  24:  0.00
  25:  0.07  26:  0.38  27:  0.26  28:  0.33  29:  0.00  30:  0.00  31:  0.00  32:  0.00
  33:  0.00  34:  0.01  35:  0.00  36:  0.00  37:  0.02  38:  0.09  39:  0.94  40:  0.78
  41:  0.48  42:  0.05  43:  0.00  44:  0.00  45:  0.07  46:  0.08  47:  0.01  48:  0.03
  49:  0.02  50:  0.02  51:  0.00  52:  0.00  53:  0.00  54:  0.00
 recommended # of modes for mode following           4
 
speedup  0.99
cpu  time for all    1.36 s
wall time for all    1.38 s
