 Entering Gaussian System
 *********************************************
 Gaussian 98:
 frequency output generated by the xtb code
 *********************************************
                         Standard orientation:
 --------------------------------------------------------------------
  Center     Atomic     Atomic              Coordinates (Angstroms)
  Number     Number      Type              X           Y           Z
 --------------------------------------------------------------------
    1          6             0       -1.145663   -0.356508    0.001707
    2          6             0        0.238536   -0.363705    0.006206
    3          6             0        0.945691    0.830078    0.000706
    4          6             0        0.237929    2.025719   -0.010106
    5          6             0       -1.148844    2.048593   -0.015769
    6          6             0       -1.836433    0.840844   -0.009047
    7          1             0       -1.688123   -1.291088    0.004913
    8          1             0        0.772123   -1.303612    0.012490
    9          1             0        0.783521    2.959900   -0.015395
   10          1             0       -2.917235    0.841144   -0.013573
   11          6             0       -1.891858    3.350869   -0.005081
   12          1             0       -2.846462    3.256810   -0.518035
   13          1             0       -2.091085    3.657624    1.022528
   14          1             0       -1.309461    4.135169   -0.483271
   15          6             0        2.445025    0.846477    0.002477
   16          1             0        2.819898    1.340827   -0.893261
   17          1             0        2.818318    1.396212    0.865768
   18          1             0        2.846008   -0.163511    0.033986
 --------------------------------------------------------------------
     1 basis functions        1 primitive gaussians
     1 alpha electrons        1 beta electrons
 
 Harmonic frequencies (cm**-1), IR intensities (KM/Mole),
 Raman scattering activities (A**4/amu), Raman depolarization ratios,
 reduced masses (AMU), force constants (mDyne/A) and normal coordinates:
                      1                      2                      3
                        a                      a                      a 
 Frequencies --   -14.2300                13.2438               187.9184
 Red. masses --     1.2777                 1.2142                 8.8701
 Frc consts  --     0.0000                 0.0000                 0.0000
 IR Inten    --     0.0103                 0.0216                 0.1043
 Raman Activ --     0.0000                 0.0000                 0.0000
 Depolar     --     0.0000                 0.0000                 0.0000
 Atom AN      X      Y      Z        X      Y      Z        X      Y      Z
   1   6    -0.00   0.00   0.08    -0.01   0.02   0.06    -0.00   0.00   0.04
   2   6    -0.00  -0.00   0.03    -0.00   0.00   0.03    -0.00   0.00   0.03
   3   6     0.00  -0.00  -0.05     0.01  -0.01  -0.02     0.00  -0.00  -0.23
   4   6     0.00  -0.00  -0.08     0.02   0.01  -0.03     0.00  -0.00  -0.59
   5   6     0.00   0.00  -0.02     0.03   0.02   0.01     0.00   0.00  -0.23
   6   6     0.00   0.00   0.06     0.01   0.02   0.05    -0.00   0.00   0.01
   7   1    -0.00   0.00   0.04    -0.00   0.01   0.03    -0.00   0.00   0.07
   8   1    -0.00  -0.00   0.01    -0.00  -0.00   0.01    -0.00   0.00   0.09
   9   1     0.00  -0.00  -0.04     0.01  -0.00  -0.02     0.00  -0.00  -0.24
  10   1     0.00   0.00   0.03     0.00   0.01   0.02    -0.00   0.00   0.08
  11   6    -0.00  -0.00  -0.06    -0.04  -0.02  -0.01     0.00  -0.01   0.36
  12   1     0.01   0.00  -0.03     0.24   0.12  -0.49    -0.03   0.06   0.16
  13   1    -0.02  -0.00  -0.02    -0.52  -0.29  -0.02     0.07  -0.13   0.16
  14   1     0.01   0.00  -0.00     0.21   0.13   0.49    -0.03   0.06   0.16
  15   6     0.00   0.00   0.02     0.01  -0.02  -0.07    -0.00   0.00   0.35
  16   1     0.02   0.50   0.30    -0.01  -0.03  -0.04     0.12  -0.04   0.13
  17   1    -0.02  -0.48   0.33     0.01   0.02  -0.04    -0.12   0.04   0.13
  18   1     0.00  -0.02  -0.54     0.00  -0.01   0.00    -0.00   0.00   0.20
                      4                      5                      6
                        a                      a                      a 
 Frequencies --   207.8316               270.8689               394.6115
 Red. masses --     8.9900                 8.3235                 8.3901
 Frc consts  --     0.0000                 0.0000                 0.0000
 IR Inten    --     0.0217                 0.0318                 0.0295
 Raman Activ --     0.0000                 0.0000                 0.0000
 Depolar     --     0.0000                 0.0000                 0.0000
 Atom AN      X      Y      Z        X      Y      Z        X      Y      Z
   1   6     0.00  -0.00  -0.01     0.06   0.11  -0.00    -0.17   0.10   0.03
   2   6     0.00  -0.00  -0.52     0.04   0.17  -0.00    -0.15  -0.25  -0.01
   3   6     0.00  -0.00  -0.16     0.07   0.14  -0.00    -0.01  -0.32  -0.02
   4   6     0.00  -0.00  -0.01     0.11   0.21   0.00     0.26  -0.13   0.02
   5   6     0.00   0.00   0.16     0.08   0.12  -0.00     0.29   0.16  -0.01
   6   6     0.00   0.00   0.52     0.11   0.11  -0.01     0.15   0.25  -0.02
   7   1     0.00  -0.00  -0.00     0.02   0.03  -0.00    -0.13   0.07   0.02
   8   1     0.00  -0.00  -0.28     0.02   0.05   0.00    -0.09  -0.10  -0.00
   9   1     0.00  -0.00  -0.00     0.03   0.06   0.00     0.15  -0.08   0.02
  10   1    -0.00   0.00   0.28     0.03   0.04  -0.00     0.04   0.14  -0.01
  11   6    -0.01   0.00  -0.25    -0.46  -0.17   0.00    -0.24  -0.16   0.00
  12   1     0.02  -0.04  -0.11    -0.14  -0.20   0.03    -0.07  -0.22   0.03
  13   1    -0.05   0.09  -0.11    -0.15  -0.06   0.00    -0.10  -0.07   0.00
  14   1     0.02  -0.04  -0.12    -0.27   0.03  -0.03    -0.22   0.05  -0.02
  15   6     0.00  -0.00   0.27     0.09  -0.49   0.00    -0.01   0.28   0.00
  16   1     0.09  -0.03   0.10     0.10  -0.20   0.00    -0.08   0.15   0.00
  17   1    -0.09   0.03   0.10     0.11  -0.20   0.00    -0.10   0.15  -0.00
  18   1    -0.00   0.00   0.16    -0.13  -0.20  -0.00     0.17   0.15   0.01
                      7                      8                      9
                        a                      a                      a 
 Frequencies --   403.9793               495.3097               502.0957
 Red. masses --     8.7893                10.3363                 9.9025
 Frc consts  --     0.0000                 0.0000                 0.0000
 IR Inten    --     0.0156                 0.0196                 0.0319
 Raman Activ --     0.0000                 0.0000                 0.0000
 Depolar     --     0.0000                 0.0000                 0.0000
 Atom AN      X      Y      Z        X      Y      Z        X      Y      Z
   1   6    -0.00  -0.00  -0.52     0.24  -0.12   0.02     0.15  -0.11   0.00
   2   6    -0.00  -0.02   0.28     0.20  -0.29   0.11     0.11  -0.18  -0.17
   3   6    -0.00  -0.02   0.29    -0.20  -0.08  -0.33    -0.18  -0.02   0.48
   4   6     0.01  -0.01  -0.33    -0.08   0.01   0.00    -0.02   0.07  -0.00
   5   6     0.01   0.02   0.31    -0.07   0.24   0.31    -0.00   0.14  -0.48
   6   6     0.01   0.01   0.27     0.33  -0.02  -0.13     0.25  -0.02   0.17
   7   1    -0.00   0.00  -0.37     0.01  -0.00   0.01     0.00  -0.01   0.01
   8   1    -0.00  -0.01   0.10     0.10  -0.05   0.10     0.08  -0.02  -0.15
   9   1     0.01  -0.01  -0.30     0.05  -0.04   0.01     0.04  -0.01  -0.00
  10   1     0.00   0.01   0.09     0.09  -0.07  -0.11     0.07  -0.03   0.15
  11   6    -0.02   0.00  -0.04    -0.13   0.32  -0.00    -0.05   0.15   0.02
  12   1     0.02  -0.05  -0.05    -0.01   0.05  -0.05    -0.06   0.12   0.07
  13   1    -0.06   0.09  -0.05    -0.09   0.19  -0.04     0.07  -0.10   0.07
  14   1     0.01  -0.03  -0.05    -0.00   0.04  -0.05    -0.04   0.11   0.08
  15   6    -0.00   0.01  -0.04    -0.27  -0.06   0.01    -0.25  -0.04  -0.02
  16   1    -0.09   0.01  -0.04     0.02  -0.03   0.04    -0.21  -0.00  -0.06
  17   1     0.08  -0.00  -0.04    -0.17  -0.01   0.04     0.07  -0.02  -0.06
  18   1     0.01   0.01  -0.06    -0.08  -0.02   0.06    -0.07  -0.01  -0.09
                     10                     11                     12
                        a                      a                      a 
 Frequencies --   527.2042               650.9924               734.3142
 Red. masses --    10.7252                 9.9829                10.7288
 Frc consts  --     0.0000                 0.0000                 0.0000
 IR Inten    --     0.0521                 0.0747                 0.0940
 Raman Activ --     0.0000                 0.0000                 0.0000
 Depolar     --     0.0000                 0.0000                 0.0000
 Atom AN      X      Y      Z        X      Y      Z        X      Y      Z
   1   6    -0.13  -0.23  -0.01    -0.01  -0.01   0.38     0.33   0.56   0.01
   2   6    -0.16   0.15   0.03    -0.01   0.00  -0.35     0.26  -0.03   0.00
   3   6    -0.26   0.20  -0.08     0.00   0.01   0.39    -0.07  -0.03  -0.01
   4   6     0.21   0.37   0.00     0.01   0.00  -0.34    -0.11  -0.18   0.00
   5   6     0.29  -0.13   0.08     0.00  -0.00   0.39     0.00  -0.07   0.02
   6   6     0.20  -0.08  -0.02     0.00  -0.01  -0.35    -0.15   0.20   0.00
   7   1    -0.03  -0.07  -0.01    -0.00  -0.00   0.07     0.09   0.16  -0.02
   8   1     0.04   0.09   0.02    -0.00   0.00  -0.21     0.01  -0.04  -0.02
   9   1     0.06   0.10  -0.00     0.00  -0.00  -0.22    -0.03  -0.05  -0.02
  10   1     0.06   0.07  -0.02     0.00  -0.00  -0.21    -0.04  -0.02  -0.03
  11   6     0.25  -0.31  -0.01     0.00  -0.00   0.05     0.17  -0.33  -0.01
  12   1     0.08  -0.11  -0.01     0.03  -0.05  -0.03     0.05  -0.12   0.00
  13   1     0.05  -0.07  -0.01    -0.06   0.10  -0.03     0.04  -0.11   0.00
  14   1     0.06  -0.09  -0.01     0.02  -0.04  -0.03     0.03  -0.08  -0.00
  15   6    -0.39   0.04   0.00     0.00   0.00   0.05    -0.37  -0.03  -0.00
  16   1    -0.08   0.00   0.01    -0.10   0.00  -0.03    -0.09  -0.02   0.00
  17   1    -0.12   0.01   0.01     0.10  -0.00  -0.03    -0.10  -0.02   0.00
  18   1    -0.13   0.00   0.01     0.00   0.00  -0.03    -0.13  -0.02   0.00
                     13                     14                     15
                        a                      a                      a 
 Frequencies --   776.9564               890.1396               894.1492
 Red. masses --     2.8890                 3.3100                 3.7658
 Frc consts  --     0.0000                 0.0000                 0.0000
 IR Inten    --     0.1889                 0.0263                 0.0073
 Raman Activ --     0.0000                 0.0000                 0.0000
 Depolar     --     0.0000                 0.0000                 0.0000
 Atom AN      X      Y      Z        X      Y      Z        X      Y      Z
   1   6     0.01   0.02  -0.22    -0.00  -0.00  -0.14    -0.00  -0.00   0.02
   2   6     0.01   0.00  -0.18    -0.00  -0.00  -0.12    -0.00  -0.01  -0.35
   3   6    -0.00   0.00   0.11    -0.00   0.00  -0.00    -0.00   0.00   0.03
   4   6     0.00  -0.01  -0.16    -0.00   0.00   0.41    -0.00   0.00  -0.02
   5   6     0.01  -0.01   0.12    -0.00   0.00  -0.00    -0.00   0.00  -0.03
   6   6    -0.01   0.01  -0.18     0.00  -0.00  -0.08     0.00   0.00   0.35
   7   1     0.00   0.01   0.46    -0.00   0.00   0.35    -0.00   0.00  -0.04
   8   1    -0.00   0.00   0.48    -0.00   0.00   0.15    -0.00   0.00   0.61
   9   1    -0.00   0.00   0.32     0.01  -0.01  -0.79    -0.00   0.00   0.04
  10   1    -0.00   0.01   0.47    -0.00   0.00   0.08     0.00  -0.01  -0.60
  11   6     0.01  -0.01   0.04    -0.00  -0.00  -0.02     0.00  -0.00  -0.03
  12   1     0.03  -0.05  -0.04    -0.01   0.02   0.02    -0.02   0.03   0.02
  13   1    -0.06   0.10  -0.03     0.03  -0.04   0.01     0.03  -0.05   0.01
  14   1     0.02  -0.05  -0.04    -0.01   0.02   0.02    -0.01   0.02   0.02
  15   6    -0.02  -0.00   0.04     0.00   0.00  -0.02     0.01   0.00   0.03
  16   1    -0.11   0.00  -0.03     0.04  -0.00   0.01    -0.05  -0.00  -0.01
  17   1     0.10  -0.00  -0.03    -0.04  -0.00   0.01     0.05   0.00  -0.02
  18   1    -0.00  -0.00  -0.05    -0.00  -0.00   0.02     0.00  -0.00  -0.02
                     16                     17                     18
                        a                      a                      a 
 Frequencies --   927.6491               947.9797               989.9456
 Red. masses --     3.4475                 8.2388                 9.8847
 Frc consts  --     0.0000                 0.0000                 0.0000
 IR Inten    --     0.0115                 0.1661                 0.0212
 Raman Activ --     0.0000                 0.0000                 0.0000
 Depolar     --     0.0000                 0.0000                 0.0000
 Atom AN      X      Y      Z        X      Y      Z        X      Y      Z
   1   6    -0.00  -0.00   0.35     0.07  -0.03  -0.00     0.06   0.11   0.00
   2   6     0.00   0.00  -0.19     0.04   0.34  -0.00     0.17  -0.41   0.00
   3   6     0.00  -0.00  -0.03     0.17  -0.10  -0.00    -0.11  -0.04   0.00
   4   6    -0.00  -0.00   0.13     0.29  -0.14   0.01     0.28   0.53  -0.01
   5   6     0.00  -0.00  -0.03     0.17  -0.10  -0.02     0.00  -0.10   0.02
   6   6    -0.00  -0.00  -0.21    -0.30  -0.20   0.01    -0.41  -0.05  -0.01
   7   1     0.01  -0.01  -0.66     0.26  -0.15   0.00     0.00   0.03   0.00
   8   1     0.00   0.00   0.39     0.03   0.11  -0.00     0.03  -0.12   0.00
   9   1     0.00  -0.00  -0.11     0.13  -0.07  -0.01     0.08   0.15   0.00
  10   1    -0.00   0.01   0.42    -0.08  -0.08  -0.02    -0.11  -0.04   0.00
  11   6     0.00   0.01  -0.02    -0.07   0.32   0.02    -0.12  -0.02  -0.02
  12   1    -0.01   0.00   0.01    -0.01  -0.08   0.00    -0.05   0.20  -0.00
  13   1     0.01  -0.02   0.01    -0.10   0.07  -0.01     0.05   0.03   0.00
  14   1    -0.01   0.02   0.01    -0.17   0.19  -0.01     0.10  -0.09   0.02
  15   6    -0.00  -0.00  -0.02    -0.30  -0.13   0.00     0.08  -0.12  -0.00
  16   1     0.03   0.00   0.01    -0.21   0.07   0.00    -0.06   0.05   0.01
  17   1    -0.03  -0.00   0.01    -0.21   0.07  -0.01    -0.07   0.05  -0.01
  18   1    -0.00   0.00   0.01     0.11   0.05  -0.00     0.23   0.05   0.00
                     19                     20                     21
                        a                      a                      a 
 Frequencies --  1008.5432              1029.9926              1032.5187
 Red. masses --     5.1977                 4.5940                 4.8140
 Frc consts  --     0.0000                 0.0000                 0.0000
 IR Inten    --     0.1082                 0.1638                 0.0989
 Raman Activ --     0.0000                 0.0000                 0.0000
 Depolar     --     0.0000                 0.0000                 0.0000
 Atom AN      X      Y      Z        X      Y      Z        X      Y      Z
   1   6    -0.05  -0.09  -0.00    -0.00  -0.01  -0.05    -0.01  -0.00   0.01
   2   6     0.12  -0.28   0.00     0.00   0.02  -0.02     0.01   0.00   0.03
   3   6    -0.05   0.07  -0.01    -0.02  -0.00   0.21    -0.09  -0.00  -0.20
   4   6     0.03   0.08  -0.00    -0.07   0.01  -0.09    -0.24   0.11   0.02
   5   6     0.09  -0.00   0.01    -0.01   0.03   0.28    -0.06   0.09   0.07
   6   6    -0.31  -0.04  -0.00     0.03  -0.00  -0.04     0.07  -0.00  -0.02
   7   1    -0.01  -0.03   0.01    -0.01   0.00   0.07    -0.06   0.03  -0.02
   8   1     0.03  -0.08  -0.00     0.02   0.02   0.03     0.06   0.04  -0.03
   9   1    -0.00   0.03   0.00    -0.06   0.03   0.11    -0.19   0.10  -0.03
  10   1    -0.09  -0.02  -0.00     0.01  -0.01   0.05     0.02  -0.06   0.01
  11   6     0.24   0.17  -0.01     0.07   0.02  -0.32     0.25   0.01  -0.07
  12   1     0.08  -0.36   0.03    -0.11   0.09   0.16     0.05  -0.26   0.05
  13   1    -0.11  -0.08   0.00     0.21  -0.43   0.09    -0.01  -0.17   0.02
  14   1    -0.30   0.30  -0.02    -0.14   0.26   0.15    -0.19   0.21   0.02
  15   6     0.02   0.26   0.01     0.03  -0.08  -0.26     0.13  -0.25   0.24
  16   1     0.19  -0.12  -0.02     0.28   0.05   0.09    -0.43   0.08  -0.06
  17   1     0.24  -0.12   0.02    -0.36   0.01   0.08     0.13   0.12  -0.10
  18   1    -0.37  -0.09  -0.01     0.11   0.03   0.14     0.39   0.07  -0.12
                     22                     23                     24
                        a                      a                      a 
 Frequencies --  1034.7993              1139.6680              1184.3042
 Red. masses --     4.7819                 4.3053                 4.6292
 Frc consts  --     0.0000                 0.0000                 0.0000
 IR Inten    --     0.0237                 0.0585                 0.3876
 Raman Activ --     0.0000                 0.0000                 0.0000
 Depolar     --     0.0000                 0.0000                 0.0000
 Atom AN      X      Y      Z        X      Y      Z        X      Y      Z
   1   6    -0.01   0.01  -0.00     0.14   0.24  -0.00     0.04  -0.03  -0.00
   2   6     0.02  -0.03  -0.04    -0.30   0.06  -0.00    -0.07   0.08  -0.00
   3   6    -0.07   0.01   0.22    -0.04  -0.06   0.00    -0.33  -0.02  -0.00
   4   6    -0.14   0.09  -0.00     0.09   0.14  -0.00    -0.05   0.02  -0.00
   5   6    -0.04   0.05  -0.23    -0.04  -0.05   0.00    -0.14   0.31   0.00
   6   6     0.02  -0.00   0.04     0.19  -0.22  -0.00    -0.11   0.03  -0.00
   7   1    -0.04   0.02   0.00     0.04   0.07  -0.00     0.28  -0.17   0.00
   8   1     0.04   0.01   0.03    -0.52  -0.23  -0.00     0.15   0.12  -0.00
   9   1    -0.12   0.07  -0.00     0.03   0.03   0.00     0.58  -0.34   0.01
  10   1     0.01  -0.05  -0.04     0.06  -0.59   0.01    -0.03  -0.17   0.01
  11   6     0.17  -0.01   0.27     0.04   0.05  -0.01     0.10  -0.16  -0.01
  12   1     0.17  -0.35  -0.12     0.01  -0.05   0.01     0.02  -0.09   0.01
  13   1    -0.24   0.28  -0.08    -0.02  -0.01   0.00     0.03  -0.06   0.01
  14   1    -0.05  -0.06  -0.14    -0.03   0.05   0.00     0.05  -0.06   0.01
  15   6     0.09  -0.15  -0.25     0.04   0.06  -0.00     0.19   0.01  -0.00
  16   1     0.24   0.08   0.10     0.03  -0.01  -0.00     0.07  -0.02  -0.00
  17   1    -0.38   0.03   0.08     0.03  -0.01   0.00     0.07  -0.02   0.00
  18   1     0.21   0.05   0.14    -0.05  -0.01  -0.00     0.09   0.01   0.00
                     25                     26                     27
                        a                      a                      a 
 Frequencies --  1194.9106              1281.2691              1286.5381
 Red. masses --     1.6307                 3.5203                 9.8859
 Frc consts  --     0.0000                 0.0000                 0.0000
 IR Inten    --     0.0221                 0.0562                 0.2547
 Raman Activ --     0.0000                 0.0000                 0.0000
 Depolar     --     0.0000                 0.0000                 0.0000
 Atom AN      X      Y      Z        X      Y      Z        X      Y      Z
   1   6     0.09  -0.05  -0.00     0.02  -0.02  -0.00    -0.22  -0.25   0.00
   2   6    -0.03  -0.05  -0.00     0.23   0.11   0.00     0.22  -0.02   0.00
   3   6    -0.04  -0.05   0.00     0.08   0.15  -0.00     0.50  -0.00   0.00
   4   6    -0.15   0.09  -0.00    -0.16   0.09  -0.00    -0.01   0.08  -0.00
   5   6     0.02   0.05  -0.00    -0.10  -0.12   0.00    -0.14   0.51   0.00
   6   6     0.04   0.04   0.00     0.02  -0.25   0.00    -0.13   0.09  -0.00
   7   1     0.59  -0.34   0.01    -0.37   0.21  -0.00    -0.03  -0.09   0.00
   8   1    -0.42  -0.24   0.00    -0.34  -0.20  -0.00    -0.16  -0.14   0.00
   9   1    -0.13   0.08  -0.00     0.45  -0.26   0.01    -0.01   0.04   0.00
  10   1     0.01   0.47  -0.01     0.00   0.38  -0.00    -0.05  -0.25   0.01
  11   6     0.02  -0.02   0.00     0.05   0.06  -0.00     0.06  -0.20  -0.01
  12   1     0.01  -0.01  -0.01     0.01  -0.05   0.01     0.02  -0.07   0.00
  13   1     0.00  -0.00  -0.00    -0.03  -0.01  -0.00     0.07  -0.06   0.01
  14   1    -0.01  -0.00  -0.01    -0.05   0.05  -0.01     0.11  -0.11   0.02
  15   6     0.03  -0.01   0.00    -0.02  -0.07   0.00    -0.19  -0.03   0.00
  16   1    -0.00   0.01   0.00    -0.06   0.03   0.00    -0.10   0.03  -0.00
  17   1    -0.00   0.01  -0.00    -0.06   0.03  -0.01    -0.11   0.03   0.00
  18   1     0.01  -0.00  -0.00     0.04   0.00   0.00    -0.10  -0.02  -0.00
                     28                     29                     30
                        a                      a                      a 
 Frequencies --  1326.5778              1404.3154              1404.7095
 Red. masses --    11.5431                 3.1377                 3.2501
 Frc consts  --     0.0000                 0.0000                 0.0000
 IR Inten    --     0.1080                 0.1747                 0.1343
 Raman Activ --     0.0000                 0.0000                 0.0000
 Depolar     --     0.0000                 0.0000                 0.0000
 Atom AN      X      Y      Z        X      Y      Z        X      Y      Z
   1   6     0.32  -0.25   0.00     0.00   0.01  -0.00     0.03   0.03  -0.00
   2   6    -0.29  -0.18   0.00     0.00   0.01  -0.00    -0.04  -0.02  -0.00
   3   6     0.07   0.44  -0.00     0.01  -0.01  -0.00    -0.04  -0.02  -0.00
   4   6     0.33  -0.18   0.00     0.01   0.00  -0.00     0.02   0.02  -0.00
   5   6    -0.38  -0.15   0.00     0.02  -0.02   0.00    -0.02  -0.05   0.00
   6   6    -0.03   0.39  -0.00    -0.00  -0.02  -0.00     0.01  -0.00  -0.00
   7   1    -0.03  -0.00  -0.00    -0.01   0.01   0.00     0.01   0.01   0.00
   8   1    -0.07  -0.05   0.00    -0.01  -0.00   0.00     0.05   0.03   0.00
   9   1     0.05  -0.03  -0.00    -0.02   0.01  -0.00     0.00   0.01  -0.00
  10   1    -0.01   0.01   0.00    -0.00   0.03  -0.00     0.00   0.03  -0.00
  11   6     0.06   0.01  -0.00    -0.19   0.33   0.04    -0.10   0.19   0.02
  12   1     0.01  -0.08   0.02     0.12  -0.39  -0.17     0.06  -0.21  -0.09
  13   1    -0.05  -0.04   0.00     0.22  -0.39   0.18     0.11  -0.21   0.09
  14   1    -0.04   0.03  -0.02     0.29  -0.29  -0.16     0.15  -0.15  -0.09
  15   6    -0.04  -0.07   0.00    -0.20  -0.02   0.00     0.38   0.05  -0.00
  16   1    -0.04   0.06   0.03     0.23  -0.01   0.10    -0.43  -0.00  -0.20
  17   1    -0.05   0.06  -0.03     0.23  -0.01  -0.10    -0.42   0.00   0.20
  18   1     0.07   0.02   0.00     0.21   0.09  -0.01    -0.39  -0.16   0.01
                     31                     32                     33
                        a                      a                      a 
 Frequencies --  1443.8707              1478.1897              1483.0151
 Red. masses --     9.3729                 5.7379                 1.5672
 Frc consts  --     0.0000                 0.0000                 0.0000
 IR Inten    --     0.1736                 0.2593                 0.0557
 Raman Activ --     0.0000                 0.0000                 0.0000
 Depolar     --     0.0000                 0.0000                 0.0000
 Atom AN      X      Y      Z        X      Y      Z        X      Y      Z
   1   6     0.09   0.15  -0.00     0.34  -0.19   0.00    -0.01   0.01   0.00
   2   6    -0.24   0.01  -0.00    -0.03   0.20  -0.00    -0.00  -0.01  -0.00
   3   6     0.29  -0.40   0.00    -0.20  -0.14  -0.00     0.01  -0.00  -0.04
   4   6     0.15   0.26  -0.00     0.15  -0.08   0.00    -0.00   0.00   0.01
   5   6    -0.49   0.03  -0.00    -0.01   0.27  -0.01    -0.01  -0.01  -0.00
   6   6     0.13  -0.18   0.00    -0.19  -0.09   0.00     0.01  -0.00   0.00
   7   1     0.03   0.05   0.00    -0.20   0.12  -0.00     0.01  -0.00  -0.00
   8   1     0.21   0.15  -0.00    -0.13  -0.01   0.00     0.01   0.00   0.00
   9   1     0.05   0.08  -0.00    -0.17   0.10  -0.00     0.00  -0.00  -0.00
  10   1     0.03   0.25  -0.00    -0.06   0.13  -0.00     0.00   0.00   0.00
  11   6     0.16  -0.01  -0.01    -0.08  -0.11  -0.04    -0.00   0.00  -0.01
  12   1    -0.04  -0.05   0.13     0.06  -0.15  -0.09    -0.01  -0.02   0.02
  13   1    -0.18  -0.09  -0.01     0.28   0.20  -0.01     0.00   0.01  -0.00
  14   1    -0.01  -0.02  -0.06     0.07   0.09   0.27     0.02   0.00   0.02
  15   6    -0.12   0.11   0.00     0.02   0.13  -0.01    -0.01  -0.01  -0.22
  16   1     0.03  -0.12  -0.05    -0.02  -0.24  -0.15    -0.28   0.37   0.07
  17   1     0.03  -0.11   0.06    -0.01  -0.24   0.17     0.29  -0.34   0.08
  18   1    -0.01   0.02  -0.01     0.16   0.07   0.01    -0.01   0.02   0.72
                     34                     35                     36
                        a                      a                      a 
 Frequencies --  1485.7125              1488.8698              1495.2165
 Red. masses --     1.7785                 2.3657                 5.2935
 Frc consts  --     0.0000                 0.0000                 0.0000
 IR Inten    --     0.0513                 0.1567                 0.2988
 Raman Activ --     0.0000                 0.0000                 0.0000
 Depolar     --     0.0000                 0.0000                 0.0000
 Atom AN      X      Y      Z        X      Y      Z        X      Y      Z
   1   6     0.04  -0.06  -0.00    -0.02  -0.09   0.00     0.27  -0.13   0.00
   2   6     0.01   0.05  -0.00     0.14   0.07   0.00    -0.03   0.17  -0.00
   3   6    -0.01  -0.03  -0.00    -0.13   0.07  -0.00    -0.22  -0.17   0.00
   4   6     0.01   0.00  -0.00     0.01  -0.08   0.00     0.14  -0.08   0.00
   5   6    -0.02   0.05   0.04     0.13   0.01  -0.01     0.04   0.29   0.00
   6   6    -0.03   0.03  -0.00    -0.05   0.09  -0.00    -0.17  -0.14  -0.00
   7   1    -0.03   0.01   0.00    -0.04  -0.01   0.00    -0.16   0.10  -0.00
   8   1    -0.03  -0.01  -0.00    -0.11  -0.06   0.00    -0.07   0.02   0.00
   9   1     0.00  -0.00   0.00    -0.06   0.01  -0.00    -0.15   0.09  -0.00
  10   1    -0.01  -0.02   0.00    -0.02  -0.07   0.00    -0.05   0.11   0.00
  11   6     0.05  -0.08   0.21     0.11   0.10  -0.04     0.08  -0.03   0.02
  12   1     0.21   0.39  -0.43    -0.21   0.08   0.38    -0.06   0.12   0.10
  13   1     0.09  -0.23   0.09    -0.48  -0.22  -0.03    -0.22  -0.17   0.01
  14   1    -0.42  -0.00  -0.48     0.16  -0.22  -0.18     0.01  -0.14  -0.19
  15   6    -0.02   0.06  -0.01    -0.01   0.10  -0.01     0.11  -0.10   0.00
  16   1    -0.03  -0.12  -0.08    -0.05  -0.27  -0.17     0.08   0.32   0.20
  17   1    -0.00  -0.15   0.10    -0.04  -0.27   0.19     0.08   0.30  -0.22
  18   1     0.10   0.05   0.04     0.22   0.09   0.01    -0.25  -0.11   0.01
                     37                     38                     39
                        a                      a                      a 
 Frequencies --  1597.3950              1609.8024              2993.7406
 Red. masses --    11.3499                11.4940                 1.8005
 Frc consts  --     0.0000                 0.0000                 0.0000
 IR Inten    --     0.2509                 0.5329                 0.1729
 Raman Activ --     0.0000                 0.0000                 0.0000
 Depolar     --     0.0000                 0.0000                 0.0000
 Atom AN      X      Y      Z        X      Y      Z        X      Y      Z
   1   6    -0.08  -0.21   0.00     0.40  -0.23   0.00    -0.00  -0.00  -0.00
   2   6     0.35   0.32  -0.00    -0.32  -0.02  -0.00     0.00  -0.00  -0.00
   3   6    -0.18  -0.43   0.00     0.28  -0.19   0.00    -0.00   0.00  -0.00
   4   6     0.07   0.16  -0.00    -0.47   0.26  -0.00     0.00  -0.00   0.00
   5   6    -0.24  -0.35  -0.00     0.35  -0.12  -0.00    -0.00   0.01   0.01
   6   6     0.07   0.48  -0.00    -0.16   0.26  -0.00     0.00  -0.00  -0.00
   7   1    -0.04  -0.04   0.00    -0.08   0.05  -0.00     0.00   0.00  -0.00
   8   1    -0.12  -0.04  -0.00     0.04   0.06  -0.00     0.00  -0.00   0.00
   9   1     0.02   0.03  -0.00     0.12  -0.08   0.00     0.00   0.01   0.00
  10   1     0.02  -0.12   0.00    -0.04  -0.07  -0.00    -0.01   0.00   0.00
  11   6     0.00   0.04  -0.00    -0.04   0.03  -0.00    -0.03   0.05   0.26
  12   1     0.01  -0.05  -0.02    -0.03   0.03   0.03    -0.11  -0.01  -0.02
  13   1     0.02   0.03  -0.00    -0.03   0.01  -0.01     0.17  -0.26  -0.90
  14   1    -0.03   0.05   0.04     0.03  -0.02  -0.00     0.06   0.08  -0.01
  15   6     0.04   0.02   0.00    -0.04   0.02  -0.00    -0.00  -0.00  -0.00
  16   1     0.04   0.04   0.04    -0.00  -0.00  -0.00    -0.00  -0.00   0.01
  17   1     0.05   0.04  -0.04     0.00  -0.00   0.00     0.01   0.01   0.01
  18   1    -0.07  -0.03   0.00    -0.03  -0.01   0.00     0.00  -0.00  -0.00
                     40                     41                     42
                        a                      a                      a 
 Frequencies --  3004.2959              3016.6293              3034.1026
 Red. masses --     1.9317                 1.5461                 1.8508
 Frc consts  --     0.0000                 0.0000                 0.0000
 IR Inten    --     0.1880                 0.1394                 0.1621
 Raman Activ --     0.0000                 0.0000                 0.0000
 Depolar     --     0.0000                 0.0000                 0.0000
 Atom AN      X      Y      Z        X      Y      Z        X      Y      Z
   1   6     0.00  -0.00   0.00    -0.00   0.00  -0.00     0.00   0.00  -0.00
   2   6    -0.00  -0.00  -0.00     0.00  -0.01   0.00     0.00  -0.00  -0.00
   3   6     0.00   0.00  -0.01     0.01   0.01   0.00    -0.00   0.00  -0.00
   4   6    -0.00  -0.00   0.00    -0.01  -0.01  -0.00    -0.01  -0.01   0.00
   5   6     0.00  -0.00   0.00     0.00  -0.00   0.00     0.01   0.00   0.00
   6   6    -0.00   0.00   0.00    -0.00  -0.00   0.00    -0.02   0.00  -0.00
   7   1     0.00   0.00  -0.00    -0.00  -0.00   0.00    -0.00  -0.01   0.00
   8   1    -0.00   0.00  -0.00    -0.01   0.01  -0.00    -0.00   0.00   0.00
   9   1     0.00   0.00  -0.00     0.03   0.04  -0.00     0.03   0.05  -0.00
  10   1     0.00  -0.00  -0.00    -0.00  -0.00   0.00     0.06  -0.00   0.00
  11   6     0.00  -0.00  -0.00    -0.00  -0.00   0.00     0.26   0.08   0.06
  12   1    -0.00  -0.00  -0.00    -0.00  -0.00   0.00    -0.78  -0.08  -0.44
  13   1    -0.00   0.00   0.01     0.00  -0.00  -0.01     0.02   0.03   0.08
  14   1     0.00   0.00  -0.00     0.01   0.01  -0.01    -0.15  -0.23   0.16
  15   6     0.01   0.01  -0.29     0.11   0.19   0.02     0.00  -0.00   0.00
  16   1    -0.25  -0.36   0.60    -0.19  -0.26   0.52    -0.00  -0.00   0.00
  17   1     0.21   0.32   0.46    -0.24  -0.36  -0.61    -0.00  -0.00  -0.00
  18   1     0.01  -0.01  -0.04     0.04  -0.05   0.01    -0.01   0.01  -0.00
                     43                     44                     45
                        a                      a                      a 
 Frequencies --  3035.8483              3042.9092              3064.1548
 Red. masses --     1.4856                 1.6585                 1.8117
 Frc consts  --     0.0000                 0.0000                 0.0000
 IR Inten    --     0.1600                 0.1557                 0.2435
 Raman Activ --     0.0000                 0.0000                 0.0000
 Depolar     --     0.0000                 0.0000                 0.0000
 Atom AN      X      Y      Z        X      Y      Z        X      Y      Z
   1   6     0.00   0.00   0.00    -0.00  -0.00   0.00    -0.03  -0.04   0.00
   2   6    -0.00   0.00   0.00    -0.01   0.02  -0.00    -0.03   0.05  -0.00
   3   6    -0.00   0.00   0.00     0.00  -0.01   0.00     0.01   0.00   0.00
   4   6    -0.01  -0.02   0.00     0.01   0.01  -0.00     0.13   0.22  -0.00
   5   6     0.00   0.01  -0.00    -0.00   0.00  -0.00    -0.00   0.01  -0.00
   6   6    -0.00  -0.00  -0.00     0.00  -0.00   0.00     0.05  -0.00   0.00
   7   1    -0.00  -0.00  -0.00     0.01   0.01  -0.00     0.10   0.17  -0.00
   8   1     0.00  -0.00  -0.00     0.04  -0.07   0.00     0.10  -0.18   0.00
   9   1     0.03   0.06  -0.00    -0.03  -0.04   0.00    -0.45  -0.77   0.00
  10   1     0.00  -0.00  -0.00    -0.01   0.00  -0.00    -0.18   0.00  -0.00
  11   6     0.05   0.17  -0.11    -0.00   0.00  -0.00     0.02   0.02  -0.00
  12   1     0.30   0.05   0.14     0.02   0.00   0.01    -0.04  -0.00  -0.02
  13   1     0.03  -0.02  -0.15     0.00  -0.00  -0.00     0.01   0.00  -0.01
  14   1    -0.50  -0.64   0.40    -0.01  -0.01   0.01    -0.04  -0.06   0.04
  15   6    -0.00   0.01  -0.00     0.10  -0.22   0.01    -0.00   0.02  -0.00
  16   1    -0.00  -0.00   0.01    -0.01  -0.06   0.05    -0.01  -0.01   0.03
  17   1    -0.00  -0.00  -0.01    -0.01  -0.06  -0.05    -0.01  -0.01  -0.03
  18   1     0.01  -0.02   0.00    -0.34   0.90  -0.03     0.03  -0.07   0.00
                     46                     47                     48
                        a                      a                      a 
 Frequencies --  3066.5941              3072.5766              3083.7509
 Red. masses --     1.7620                 1.8258                 1.9044
 Frc consts  --     0.0000                 0.0000                 0.0000
 IR Inten    --     0.1340                 0.3078                 0.3103
 Raman Activ --     0.0000                 0.0000                 0.0000
 Depolar     --     0.0000                 0.0000                 0.0000
 Atom AN      X      Y      Z        X      Y      Z        X      Y      Z
   1   6     0.09   0.15  -0.00    -0.01  -0.02   0.00     0.10   0.18  -0.00
   2   6     0.07  -0.12   0.00     0.09  -0.16   0.00    -0.07   0.11  -0.00
   3   6     0.01  -0.00   0.00     0.01  -0.00   0.00    -0.01  -0.00  -0.00
   4   6     0.05   0.08  -0.00    -0.00   0.00   0.00    -0.01  -0.01   0.00
   5   6    -0.01   0.01  -0.00     0.01  -0.01   0.00     0.00  -0.01   0.00
   6   6    -0.11   0.00  -0.00     0.20   0.00   0.00     0.14  -0.00   0.00
   7   1    -0.32  -0.54   0.00     0.03   0.06  -0.00    -0.35  -0.60   0.00
   8   1    -0.25   0.43  -0.00    -0.32   0.58  -0.00     0.22  -0.38   0.00
   9   1    -0.17  -0.29   0.00     0.00  -0.00  -0.00     0.02   0.04  -0.00
  10   1     0.42  -0.00   0.00    -0.69  -0.00  -0.00    -0.48  -0.00  -0.00
  11   6    -0.00   0.00  -0.00     0.01   0.00   0.00     0.01   0.00   0.00
  12   1     0.02   0.00   0.01    -0.03  -0.00  -0.02    -0.02  -0.00  -0.01
  13   1     0.00  -0.00  -0.01     0.00   0.00   0.01     0.00   0.00   0.01
  14   1    -0.01  -0.01   0.01    -0.01  -0.01   0.01    -0.00  -0.00   0.00
  15   6     0.00  -0.01   0.00     0.00  -0.01   0.00    -0.00   0.01  -0.00
  16   1    -0.00  -0.00   0.01     0.00  -0.00  -0.00     0.00   0.00   0.00
  17   1    -0.00  -0.01  -0.01     0.00   0.00   0.00    -0.00   0.00  -0.00
  18   1    -0.01   0.03  -0.00    -0.02   0.04  -0.00     0.01  -0.03   0.00
