 Entering Gaussian System
 *********************************************
 Gaussian 98:
 frequency output generated by the xtb code
 *********************************************
                         Standard orientation:
 --------------------------------------------------------------------
  Center     Atomic     Atomic              Coordinates (Angstroms)
  Number     Number      Type              X           Y           Z
 --------------------------------------------------------------------
    1          6             0       -1.145661   -0.356514    0.001703
    2          6             0        0.238538   -0.363704    0.006206
    3          6             0        0.945687    0.830083    0.000711
    4          6             0        0.237919    2.025720   -0.010101
    5          6             0       -1.148855    2.048587   -0.015769
    6          6             0       -1.836437    0.840834   -0.009052
    7          1             0       -1.688116   -1.291097    0.004905
    8          1             0        0.772129   -1.303608    0.012490
    9          1             0        0.783505    2.959904   -0.015387
   10          1             0       -2.917240    0.841129   -0.013582
   11          6             0       -1.891875    3.350859   -0.005082
   12          1             0       -2.846478    3.256796   -0.518039
   13          1             0       -2.091108    3.657611    1.022527
   14          1             0       -1.309481    4.135163   -0.483268
   15          6             0        2.445020    0.846490    0.002487
   16          1             0        2.819894    1.340843   -0.893248
   17          1             0        2.818308    1.396225    0.865780
   18          1             0        2.846009   -0.163496    0.033995
 --------------------------------------------------------------------
     1 basis functions        1 primitive gaussians
     1 alpha electrons        1 beta electrons
 
 Harmonic frequencies (cm**-1), IR intensities (KM/Mole),
 Raman scattering activities (A**4/amu), Raman depolarization ratios,
 reduced masses (AMU), force constants (mDyne/A) and normal coordinates:
                      1                      2                      3
                        a                      a                      a 
 Frequencies --   -14.2300                13.2438               207.8316
 Red. masses --    99.0000                99.0000                99.0000
 Frc consts  --    99.0000                99.0000                99.0000
 IR Inten    --    99.0000                99.0000                99.0000
 Raman Activ --     0.0000                 0.0000                 0.0000
 Depolar     --     0.0000                 0.0000                 0.0000
 Atom AN      X      Y      Z        X      Y      Z        X      Y      Z
   1   6    -0.00   0.00   0.08    -0.01   0.02   0.06     0.00  -0.00  -0.01
   2   6    -0.00  -0.00   0.03    -0.00   0.00   0.03     0.00  -0.00  -0.52
   3   6     0.00  -0.00  -0.05     0.01  -0.01  -0.02     0.00  -0.00  -0.16
   4   6     0.00  -0.00  -0.08     0.02   0.01  -0.03     0.00  -0.00  -0.01
   5   6     0.00   0.00  -0.02     0.03   0.02   0.01     0.00   0.00   0.16
   6   6     0.00   0.00   0.06     0.01   0.02   0.05     0.00   0.00   0.52
   7   1    -0.00   0.00   0.04    -0.00   0.01   0.03     0.00  -0.00  -0.00
   8   1    -0.00  -0.00   0.01    -0.00  -0.00   0.01     0.00  -0.00  -0.28
   9   1     0.00  -0.00  -0.04     0.01  -0.00  -0.02     0.00  -0.00  -0.00
  10   1     0.00   0.00   0.03     0.00   0.01   0.02    -0.00   0.00   0.28
  11   6    -0.00  -0.00  -0.06    -0.04  -0.02  -0.01    -0.01   0.00  -0.25
  12   1     0.01   0.00  -0.03     0.24   0.12  -0.49     0.02  -0.04  -0.11
  13   1    -0.02  -0.00  -0.02    -0.52  -0.29  -0.02    -0.05   0.09  -0.11
  14   1     0.01   0.00  -0.00     0.21   0.13   0.49     0.02  -0.04  -0.12
  15   6     0.00   0.00   0.02     0.01  -0.02  -0.07     0.00  -0.00   0.27
  16   1     0.02   0.50   0.30    -0.01  -0.03  -0.04     0.09  -0.03   0.10
  17   1    -0.02  -0.48   0.33     0.01   0.02  -0.04    -0.09   0.03   0.10
  18   1     0.00  -0.02  -0.54     0.00  -0.01   0.00    -0.00   0.00   0.16
                      4                      5                      6
                        a                      a                      a 
 Frequencies --   187.9184               403.9793               502.0957
 Red. masses --    99.0000                99.0000                99.0000
 Frc consts  --    99.0000                99.0000                99.0000
 IR Inten    --    99.0000                99.0000                99.0000
 Raman Activ --     0.0000                 0.0000                 0.0000
 Depolar     --     0.0000                 0.0000                 0.0000
 Atom AN      X      Y      Z        X      Y      Z        X      Y      Z
   1   6    -0.00   0.00   0.04    -0.00  -0.00  -0.52     0.15  -0.11   0.00
   2   6    -0.00   0.00   0.03    -0.00  -0.02   0.28     0.11  -0.18  -0.17
   3   6     0.00  -0.00  -0.23    -0.00  -0.02   0.29    -0.18  -0.02   0.48
   4   6     0.00  -0.00  -0.59     0.01  -0.01  -0.33    -0.02   0.07  -0.00
   5   6     0.00   0.00  -0.23     0.01   0.02   0.31    -0.00   0.14  -0.48
   6   6    -0.00   0.00   0.01     0.01   0.01   0.27     0.25  -0.02   0.17
   7   1    -0.00   0.00   0.07    -0.00   0.00  -0.37     0.00  -0.01   0.01
   8   1    -0.00   0.00   0.09    -0.00  -0.01   0.10     0.08  -0.02  -0.15
   9   1     0.00  -0.00  -0.24     0.01  -0.01  -0.30     0.04  -0.01  -0.00
  10   1    -0.00   0.00   0.08     0.00   0.01   0.09     0.07  -0.03   0.15
  11   6     0.00  -0.01   0.36    -0.02   0.00  -0.04    -0.05   0.15   0.02
  12   1    -0.03   0.06   0.16     0.02  -0.05  -0.05    -0.06   0.12   0.07
  13   1     0.07  -0.13   0.16    -0.06   0.09  -0.05     0.07  -0.10   0.07
  14   1    -0.03   0.06   0.16     0.01  -0.03  -0.05    -0.04   0.11   0.08
  15   6    -0.00   0.00   0.35    -0.00   0.01  -0.04    -0.25  -0.04  -0.02
  16   1     0.12  -0.04   0.13    -0.09   0.01  -0.04    -0.21  -0.00  -0.06
  17   1    -0.12   0.04   0.13     0.08  -0.00  -0.04     0.07  -0.02  -0.06
  18   1    -0.00   0.00   0.20     0.01   0.01  -0.06    -0.07  -0.01  -0.09
                      7                      8                      9
                        a                      a                      a 
 Frequencies --   650.9924               270.8689               776.9564
 Red. masses --    99.0000                99.0000                99.0000
 Frc consts  --    99.0000                99.0000                99.0000
 IR Inten    --    99.0000                99.0000                99.0000
 Raman Activ --     0.0000                 0.0000                 0.0000
 Depolar     --     0.0000                 0.0000                 0.0000
 Atom AN      X      Y      Z        X      Y      Z        X      Y      Z
   1   6    -0.01  -0.01   0.38     0.06   0.11  -0.00     0.01   0.02  -0.22
   2   6    -0.01   0.00  -0.35     0.04   0.17  -0.00     0.01   0.00  -0.18
   3   6     0.00   0.01   0.39     0.07   0.14  -0.00    -0.00   0.00   0.11
   4   6     0.01   0.00  -0.34     0.11   0.21   0.00     0.00  -0.01  -0.16
   5   6     0.00  -0.00   0.39     0.08   0.12  -0.00     0.01  -0.01   0.12
   6   6     0.00  -0.01  -0.35     0.11   0.11  -0.01    -0.01   0.01  -0.18
   7   1    -0.00  -0.00   0.07     0.02   0.03  -0.00     0.00   0.01   0.46
   8   1    -0.00   0.00  -0.21     0.02   0.05   0.00    -0.00   0.00   0.48
   9   1     0.00  -0.00  -0.22     0.03   0.06   0.00    -0.00   0.00   0.32
  10   1     0.00  -0.00  -0.21     0.03   0.04  -0.00    -0.00   0.01   0.47
  11   6     0.00  -0.00   0.05    -0.46  -0.17   0.00     0.01  -0.01   0.04
  12   1     0.03  -0.05  -0.03    -0.14  -0.20   0.03     0.03  -0.05  -0.04
  13   1    -0.06   0.10  -0.03    -0.15  -0.06   0.00    -0.06   0.10  -0.03
  14   1     0.02  -0.04  -0.03    -0.27   0.03  -0.03     0.02  -0.05  -0.04
  15   6     0.00   0.00   0.05     0.09  -0.49   0.00    -0.02  -0.00   0.04
  16   1    -0.10   0.00  -0.03     0.10  -0.20   0.00    -0.11   0.00  -0.03
  17   1     0.10  -0.00  -0.03     0.11  -0.20   0.00     0.10  -0.00  -0.03
  18   1     0.00   0.00  -0.03    -0.13  -0.20  -0.00    -0.00  -0.00  -0.05
                     10                     11                     12
                        a                      a                      a 
 Frequencies --   894.1492               890.1396               495.3097
 Red. masses --    99.0000                99.0000                99.0000
 Frc consts  --    99.0000                99.0000                99.0000
 IR Inten    --    99.0000                99.0000                99.0000
 Raman Activ --     0.0000                 0.0000                 0.0000
 Depolar     --     0.0000                 0.0000                 0.0000
 Atom AN      X      Y      Z        X      Y      Z        X      Y      Z
   1   6    -0.00  -0.00   0.02    -0.00  -0.00  -0.14     0.24  -0.12   0.02
   2   6    -0.00  -0.01  -0.35    -0.00  -0.00  -0.12     0.20  -0.29   0.11
   3   6    -0.00   0.00   0.03    -0.00   0.00  -0.00    -0.20  -0.08  -0.33
   4   6    -0.00   0.00  -0.02    -0.00   0.00   0.41    -0.08   0.01   0.00
   5   6    -0.00   0.00  -0.03    -0.00   0.00  -0.00    -0.07   0.24   0.31
   6   6     0.00   0.00   0.35     0.00  -0.00  -0.08     0.33  -0.02  -0.13
   7   1    -0.00   0.00  -0.04    -0.00   0.00   0.35     0.01  -0.00   0.01
   8   1    -0.00   0.00   0.61    -0.00   0.00   0.15     0.10  -0.05   0.10
   9   1    -0.00   0.00   0.04     0.01  -0.01  -0.79     0.05  -0.04   0.01
  10   1     0.00  -0.01  -0.60    -0.00   0.00   0.08     0.09  -0.07  -0.11
  11   6     0.00  -0.00  -0.03    -0.00  -0.00  -0.02    -0.13   0.32  -0.00
  12   1    -0.02   0.03   0.02    -0.01   0.02   0.02    -0.01   0.05  -0.05
  13   1     0.03  -0.05   0.01     0.03  -0.04   0.01    -0.09   0.19  -0.04
  14   1    -0.01   0.02   0.02    -0.01   0.02   0.02    -0.00   0.04  -0.05
  15   6     0.01   0.00   0.03     0.00   0.00  -0.02    -0.27  -0.06   0.01
  16   1    -0.05  -0.00  -0.01     0.04  -0.00   0.01     0.02  -0.03   0.04
  17   1     0.05   0.00  -0.02    -0.04  -0.00   0.01    -0.17  -0.01   0.04
  18   1     0.00  -0.00  -0.02    -0.00  -0.00   0.02    -0.08  -0.02   0.06
                     13                     14                     15
                        a                      a                      a 
 Frequencies --   927.6491               394.6115               527.2042
 Red. masses --    99.0000                99.0000                99.0000
 Frc consts  --    99.0000                99.0000                99.0000
 IR Inten    --    99.0000                99.0000                99.0000
 Raman Activ --     0.0000                 0.0000                 0.0000
 Depolar     --     0.0000                 0.0000                 0.0000
 Atom AN      X      Y      Z        X      Y      Z        X      Y      Z
   1   6    -0.00  -0.00   0.35    -0.17   0.10   0.03    -0.13  -0.23  -0.01
   2   6     0.00   0.00  -0.19    -0.15  -0.25  -0.01    -0.16   0.15   0.03
   3   6     0.00  -0.00  -0.03    -0.01  -0.32  -0.02    -0.26   0.20  -0.08
   4   6    -0.00  -0.00   0.13     0.26  -0.13   0.02     0.21   0.37   0.00
   5   6     0.00  -0.00  -0.03     0.29   0.16  -0.01     0.29  -0.13   0.08
   6   6    -0.00  -0.00  -0.21     0.15   0.25  -0.02     0.20  -0.08  -0.02
   7   1     0.01  -0.01  -0.66    -0.13   0.07   0.02    -0.03  -0.07  -0.01
   8   1     0.00   0.00   0.39    -0.09  -0.10  -0.00     0.04   0.09   0.02
   9   1     0.00  -0.00  -0.11     0.15  -0.08   0.02     0.06   0.10  -0.00
  10   1    -0.00   0.01   0.42     0.04   0.14  -0.01     0.06   0.07  -0.02
  11   6     0.00   0.01  -0.02    -0.24  -0.16   0.00     0.25  -0.31  -0.01
  12   1    -0.01   0.00   0.01    -0.07  -0.22   0.03     0.08  -0.11  -0.01
  13   1     0.01  -0.02   0.01    -0.10  -0.07   0.00     0.05  -0.07  -0.01
  14   1    -0.01   0.02   0.01    -0.22   0.05  -0.02     0.06  -0.09  -0.01
  15   6    -0.00  -0.00  -0.02    -0.01   0.28   0.00    -0.39   0.04   0.00
  16   1     0.03   0.00   0.01    -0.08   0.15   0.00    -0.08   0.00   0.01
  17   1    -0.03  -0.00   0.01    -0.10   0.15  -0.00    -0.12   0.01   0.01
  18   1    -0.00   0.00   0.01     0.17   0.15   0.01    -0.13   0.00   0.01
                     16                     17                     18
                        a                      a                      a 
 Frequencies --  1483.0151              1485.7125               734.3142
 Red. masses --    99.0000                99.0000                99.0000
 Frc consts  --    99.0000                99.0000                99.0000
 IR Inten    --    99.0000                99.0000                99.0000
 Raman Activ --     0.0000                 0.0000                 0.0000
 Depolar     --     0.0000                 0.0000                 0.0000
 Atom AN      X      Y      Z        X      Y      Z        X      Y      Z
   1   6    -0.01   0.01   0.00     0.04  -0.06  -0.00     0.33   0.56   0.01
   2   6    -0.00  -0.01  -0.00     0.01   0.05  -0.00     0.26  -0.03   0.00
   3   6     0.01  -0.00  -0.04    -0.01  -0.03  -0.00    -0.07  -0.03  -0.01
   4   6    -0.00   0.00   0.01     0.01   0.00  -0.00    -0.11  -0.18   0.00
   5   6    -0.01  -0.01  -0.00    -0.02   0.05   0.04     0.00  -0.07   0.02
   6   6     0.01  -0.00   0.00    -0.03   0.03  -0.00    -0.15   0.20   0.00
   7   1     0.01  -0.00  -0.00    -0.03   0.01   0.00     0.09   0.16  -0.02
   8   1     0.01   0.00   0.00    -0.03  -0.01  -0.00     0.01  -0.04  -0.02
   9   1     0.00  -0.00  -0.00     0.00  -0.00   0.00    -0.03  -0.05  -0.02
  10   1     0.00   0.00   0.00    -0.01  -0.02   0.00    -0.04  -0.02  -0.03
  11   6    -0.00   0.00  -0.01     0.05  -0.08   0.21     0.17  -0.33  -0.01
  12   1    -0.01  -0.02   0.02     0.21   0.39  -0.43     0.05  -0.12   0.00
  13   1     0.00   0.01  -0.00     0.09  -0.23   0.09     0.04  -0.11   0.00
  14   1     0.02   0.00   0.02    -0.42  -0.00  -0.48     0.03  -0.08  -0.00
  15   6    -0.01  -0.01  -0.22    -0.02   0.06  -0.01    -0.37  -0.03  -0.00
  16   1    -0.28   0.37   0.07    -0.03  -0.12  -0.08    -0.09  -0.02   0.00
  17   1     0.29  -0.34   0.08    -0.00  -0.15   0.10    -0.10  -0.02   0.00
  18   1    -0.01   0.02   0.72     0.10   0.05   0.04    -0.13  -0.02   0.00
                     19                     20                     21
                        a                      a                      a 
 Frequencies --  1029.9926              1034.7993              1032.5187
 Red. masses --    99.0000                99.0000                99.0000
 Frc consts  --    99.0000                99.0000                99.0000
 IR Inten    --    99.0000                99.0000                99.0000
 Raman Activ --     0.0000                 0.0000                 0.0000
 Depolar     --     0.0000                 0.0000                 0.0000
 Atom AN      X      Y      Z        X      Y      Z        X      Y      Z
   1   6    -0.00  -0.01  -0.05    -0.01   0.01  -0.00    -0.01  -0.00   0.01
   2   6     0.00   0.02  -0.02     0.02  -0.03  -0.04     0.01   0.00   0.03
   3   6    -0.02  -0.00   0.21    -0.07   0.01   0.22    -0.09  -0.00  -0.20
   4   6    -0.07   0.01  -0.09    -0.14   0.09  -0.00    -0.24   0.11   0.02
   5   6    -0.01   0.03   0.28    -0.04   0.05  -0.23    -0.06   0.09   0.07
   6   6     0.03  -0.00  -0.04     0.02  -0.00   0.04     0.07  -0.00  -0.02
   7   1    -0.01   0.00   0.07    -0.04   0.02   0.00    -0.06   0.03  -0.02
   8   1     0.02   0.02   0.03     0.04   0.01   0.03     0.06   0.04  -0.03
   9   1    -0.06   0.03   0.11    -0.12   0.07  -0.00    -0.19   0.10  -0.03
  10   1     0.01  -0.01   0.05     0.01  -0.05  -0.04     0.02  -0.06   0.01
  11   6     0.07   0.02  -0.32     0.17  -0.01   0.27     0.25   0.01  -0.07
  12   1    -0.11   0.09   0.16     0.17  -0.35  -0.12     0.05  -0.26   0.05
  13   1     0.21  -0.43   0.09    -0.24   0.28  -0.08    -0.01  -0.17   0.02
  14   1    -0.14   0.26   0.15    -0.05  -0.06  -0.14    -0.19   0.21   0.02
  15   6     0.03  -0.08  -0.26     0.09  -0.15  -0.25     0.13  -0.25   0.24
  16   1     0.28   0.05   0.09     0.24   0.08   0.10    -0.43   0.08  -0.06
  17   1    -0.36   0.01   0.08    -0.38   0.03   0.08     0.13   0.12  -0.10
  18   1     0.11   0.03   0.14     0.21   0.05   0.14     0.39   0.07  -0.12
                     22                     23                     24
                        a                      a                      a 
 Frequencies --   947.9797              1008.5432               989.9456
 Red. masses --    99.0000                99.0000                99.0000
 Frc consts  --    99.0000                99.0000                99.0000
 IR Inten    --    99.0000                99.0000                99.0000
 Raman Activ --     0.0000                 0.0000                 0.0000
 Depolar     --     0.0000                 0.0000                 0.0000
 Atom AN      X      Y      Z        X      Y      Z        X      Y      Z
   1   6     0.07  -0.03  -0.00    -0.05  -0.09  -0.00     0.06   0.11   0.00
   2   6     0.04   0.34  -0.00     0.12  -0.28   0.00     0.17  -0.41   0.00
   3   6     0.17  -0.10  -0.00    -0.05   0.07  -0.01    -0.11  -0.04   0.00
   4   6     0.29  -0.14   0.01     0.03   0.08  -0.00     0.28   0.53  -0.01
   5   6     0.17  -0.10  -0.02     0.09  -0.00   0.01     0.00  -0.10   0.02
   6   6    -0.30  -0.20   0.01    -0.31  -0.04  -0.00    -0.41  -0.05  -0.01
   7   1     0.26  -0.15   0.00    -0.01  -0.03   0.01     0.00   0.03   0.00
   8   1     0.03   0.11  -0.00     0.03  -0.08  -0.00     0.03  -0.12   0.00
   9   1     0.13  -0.07  -0.01    -0.00   0.03   0.00     0.08   0.15   0.00
  10   1    -0.08  -0.08  -0.02    -0.09  -0.02  -0.00    -0.11  -0.04   0.00
  11   6    -0.07   0.32   0.02     0.24   0.17  -0.01    -0.12  -0.02  -0.02
  12   1    -0.01  -0.08   0.00     0.08  -0.36   0.03    -0.05   0.20  -0.00
  13   1    -0.10   0.07  -0.01    -0.11  -0.08   0.00     0.05   0.03   0.00
  14   1    -0.17   0.19  -0.01    -0.30   0.30  -0.02     0.10  -0.09   0.02
  15   6    -0.30  -0.13   0.00     0.02   0.26   0.01     0.08  -0.12  -0.00
  16   1    -0.21   0.07   0.00     0.19  -0.12  -0.02    -0.06   0.05   0.01
  17   1    -0.21   0.07  -0.01     0.24  -0.12   0.02    -0.07   0.05  -0.01
  18   1     0.11   0.05  -0.00    -0.37  -0.09  -0.01     0.23   0.05   0.00
                     25                     26                     27
                        a                      a                      a 
 Frequencies --  1488.8698              1139.6680              1184.3042
 Red. masses --    99.0000                99.0000                99.0000
 Frc consts  --    99.0000                99.0000                99.0000
 IR Inten    --    99.0000                99.0000                99.0000
 Raman Activ --     0.0000                 0.0000                 0.0000
 Depolar     --     0.0000                 0.0000                 0.0000
 Atom AN      X      Y      Z        X      Y      Z        X      Y      Z
   1   6    -0.02  -0.09   0.00     0.14   0.24  -0.00     0.04  -0.03  -0.00
   2   6     0.14   0.07   0.00    -0.30   0.06  -0.00    -0.07   0.08  -0.00
   3   6    -0.13   0.07  -0.00    -0.04  -0.06   0.00    -0.33  -0.02  -0.00
   4   6     0.01  -0.08   0.00     0.09   0.14  -0.00    -0.05   0.02  -0.00
   5   6     0.13   0.01  -0.01    -0.04  -0.05   0.00    -0.14   0.31   0.00
   6   6    -0.05   0.09  -0.00     0.19  -0.22  -0.00    -0.11   0.03  -0.00
   7   1    -0.04  -0.01   0.00     0.04   0.07  -0.00     0.28  -0.17   0.00
   8   1    -0.11  -0.06   0.00    -0.52  -0.23  -0.00     0.15   0.12  -0.00
   9   1    -0.06   0.01  -0.00     0.03   0.03   0.00     0.58  -0.34   0.01
  10   1    -0.02  -0.07   0.00     0.06  -0.59   0.01    -0.03  -0.17   0.01
  11   6     0.11   0.10  -0.04     0.04   0.05  -0.01     0.10  -0.16  -0.01
  12   1    -0.21   0.08   0.38     0.01  -0.05   0.01     0.02  -0.09   0.01
  13   1    -0.48  -0.22  -0.03    -0.02  -0.01   0.00     0.03  -0.06   0.01
  14   1     0.16  -0.22  -0.18    -0.03   0.05   0.00     0.05  -0.06   0.01
  15   6    -0.01   0.10  -0.01     0.04   0.06  -0.00     0.19   0.01  -0.00
  16   1    -0.05  -0.27  -0.17     0.03  -0.01  -0.00     0.07  -0.02  -0.00
  17   1    -0.04  -0.27   0.19     0.03  -0.01   0.00     0.07  -0.02   0.00
  18   1     0.22   0.09   0.01    -0.05  -0.01  -0.00     0.09   0.01   0.00
                     28                     29                     30
                        a                      a                      a 
 Frequencies --  1194.9106              1281.2691              1286.5381
 Red. masses --    99.0000                99.0000                99.0000
 Frc consts  --    99.0000                99.0000                99.0000
 IR Inten    --    99.0000                99.0000                99.0000
 Raman Activ --     0.0000                 0.0000                 0.0000
 Depolar     --     0.0000                 0.0000                 0.0000
 Atom AN      X      Y      Z        X      Y      Z        X      Y      Z
   1   6     0.09  -0.05  -0.00     0.02  -0.02  -0.00    -0.22  -0.25   0.00
   2   6    -0.03  -0.05  -0.00     0.23   0.11   0.00     0.22  -0.02   0.00
   3   6    -0.04  -0.05   0.00     0.08   0.15  -0.00     0.50  -0.00   0.00
   4   6    -0.15   0.09  -0.00    -0.16   0.09  -0.00    -0.01   0.08  -0.00
   5   6     0.02   0.05  -0.00    -0.10  -0.12   0.00    -0.14   0.51   0.00
   6   6     0.04   0.04   0.00     0.02  -0.25   0.00    -0.13   0.09  -0.00
   7   1     0.59  -0.34   0.01    -0.37   0.21  -0.00    -0.03  -0.09   0.00
   8   1    -0.42  -0.24   0.00    -0.34  -0.20  -0.00    -0.16  -0.14   0.00
   9   1    -0.13   0.08  -0.00     0.45  -0.26   0.01    -0.01   0.04   0.00
  10   1     0.01   0.47  -0.01     0.00   0.38  -0.00    -0.05  -0.25   0.01
  11   6     0.02  -0.02   0.00     0.05   0.06  -0.00     0.06  -0.20  -0.01
  12   1     0.01  -0.01  -0.01     0.01  -0.05   0.01     0.02  -0.07   0.00
  13   1     0.00  -0.00  -0.00    -0.03  -0.01  -0.00     0.07  -0.06   0.01
  14   1    -0.01  -0.00  -0.01    -0.05   0.05  -0.01     0.11  -0.11   0.02
  15   6     0.03  -0.01   0.00    -0.02  -0.07   0.00    -0.19  -0.03   0.00
  16   1    -0.00   0.01   0.00    -0.06   0.03   0.00    -0.10   0.03  -0.00
  17   1    -0.00   0.01  -0.00    -0.06   0.03  -0.01    -0.11   0.03   0.00
  18   1     0.01  -0.00  -0.00     0.04   0.00   0.00    -0.10  -0.02  -0.00
                     31                     32                     33
                        a                      a                      a 
 Frequencies --  1326.5778              1478.1897              1404.3154
 Red. masses --    99.0000                99.0000                99.0000
 Frc consts  --    99.0000                99.0000                99.0000
 IR Inten    --    99.0000                99.0000                99.0000
 Raman Activ --     0.0000                 0.0000                 0.0000
 Depolar     --     0.0000                 0.0000                 0.0000
 Atom AN      X      Y      Z        X      Y      Z        X      Y      Z
   1   6     0.32  -0.25   0.00     0.34  -0.19   0.00     0.00   0.01  -0.00
   2   6    -0.29  -0.18   0.00    -0.03   0.20  -0.00     0.00   0.01  -0.00
   3   6     0.07   0.44  -0.00    -0.20  -0.14  -0.00     0.01  -0.01  -0.00
   4   6     0.33  -0.18   0.00     0.15  -0.08   0.00     0.01   0.00  -0.00
   5   6    -0.38  -0.15   0.00    -0.01   0.27  -0.01     0.02  -0.02   0.00
   6   6    -0.03   0.39  -0.00    -0.19  -0.09   0.00    -0.00  -0.02  -0.00
   7   1    -0.03  -0.00  -0.00    -0.20   0.12  -0.00    -0.01   0.01   0.00
   8   1    -0.07  -0.05   0.00    -0.13  -0.01   0.00    -0.01  -0.00   0.00
   9   1     0.05  -0.03  -0.00    -0.17   0.10  -0.00    -0.02   0.01  -0.00
  10   1    -0.01   0.01   0.00    -0.06   0.13  -0.00    -0.00   0.03  -0.00
  11   6     0.06   0.01  -0.00    -0.08  -0.11  -0.04    -0.19   0.33   0.04
  12   1     0.01  -0.08   0.02     0.06  -0.15  -0.09     0.12  -0.39  -0.17
  13   1    -0.05  -0.04   0.00     0.28   0.20  -0.01     0.22  -0.39   0.18
  14   1    -0.04   0.03  -0.02     0.07   0.09   0.27     0.29  -0.29  -0.16
  15   6    -0.04  -0.07   0.00     0.02   0.13  -0.01    -0.20  -0.02   0.00
  16   1    -0.04   0.06   0.03    -0.02  -0.24  -0.15     0.23  -0.01   0.10
  17   1    -0.05   0.06  -0.03    -0.01  -0.24   0.17     0.23  -0.01  -0.10
  18   1     0.07   0.02   0.00     0.16   0.07   0.01     0.21   0.09  -0.01
                     34                     35                     36
                        a                      a                      a 
 Frequencies --  1404.7095              1443.8707              1495.2165
 Red. masses --    99.0000                99.0000                99.0000
 Frc consts  --    99.0000                99.0000                99.0000
 IR Inten    --    99.0000                99.0000                99.0000
 Raman Activ --     0.0000                 0.0000                 0.0000
 Depolar     --     0.0000                 0.0000                 0.0000
 Atom AN      X      Y      Z        X      Y      Z        X      Y      Z
   1   6     0.03   0.03  -0.00     0.09   0.15  -0.00     0.27  -0.13   0.00
   2   6    -0.04  -0.02  -0.00    -0.24   0.01  -0.00    -0.03   0.17  -0.00
   3   6    -0.04  -0.02  -0.00     0.29  -0.40   0.00    -0.22  -0.17   0.00
   4   6     0.02   0.02  -0.00     0.15   0.26  -0.00     0.14  -0.08   0.00
   5   6    -0.02  -0.05   0.00    -0.49   0.03  -0.00     0.04   0.29   0.00
   6   6     0.01  -0.00  -0.00     0.13  -0.18   0.00    -0.17  -0.14  -0.00
   7   1     0.01   0.01   0.00     0.03   0.05   0.00    -0.16   0.10  -0.00
   8   1     0.05   0.03   0.00     0.21   0.15  -0.00    -0.07   0.02   0.00
   9   1     0.00   0.01  -0.00     0.05   0.08  -0.00    -0.15   0.09  -0.00
  10   1     0.00   0.03  -0.00     0.03   0.25  -0.00    -0.05   0.11   0.00
  11   6    -0.10   0.19   0.02     0.16  -0.01  -0.01     0.08  -0.03   0.02
  12   1     0.06  -0.21  -0.09    -0.04  -0.05   0.13    -0.06   0.12   0.10
  13   1     0.11  -0.21   0.09    -0.18  -0.09  -0.01    -0.22  -0.17   0.01
  14   1     0.15  -0.15  -0.09    -0.01  -0.02  -0.06     0.01  -0.14  -0.19
  15   6     0.38   0.05  -0.00    -0.12   0.11   0.00     0.11  -0.10   0.00
  16   1    -0.43  -0.00  -0.20     0.03  -0.12  -0.05     0.08   0.32   0.20
  17   1    -0.42   0.00   0.20     0.03  -0.11   0.06     0.08   0.30  -0.22
  18   1    -0.39  -0.16   0.01    -0.01   0.02  -0.01    -0.25  -0.11   0.01
                     37                     38                     39
                        a                      a                      a 
 Frequencies --  1597.3950              1609.8024              3004.2959
 Red. masses --    99.0000                99.0000                99.0000
 Frc consts  --    99.0000                99.0000                99.0000
 IR Inten    --    99.0000                99.0000                99.0000
 Raman Activ --     0.0000                 0.0000                 0.0000
 Depolar     --     0.0000                 0.0000                 0.0000
 Atom AN      X      Y      Z        X      Y      Z        X      Y      Z
   1   6    -0.08  -0.21   0.00     0.40  -0.23   0.00     0.00  -0.00   0.00
   2   6     0.35   0.32  -0.00    -0.32  -0.02  -0.00    -0.00  -0.00  -0.00
   3   6    -0.18  -0.43   0.00     0.28  -0.19   0.00     0.00   0.00  -0.01
   4   6     0.07   0.16  -0.00    -0.47   0.26  -0.00    -0.00  -0.00   0.00
   5   6    -0.24  -0.35  -0.00     0.35  -0.12  -0.00     0.00  -0.00   0.00
   6   6     0.07   0.48  -0.00    -0.16   0.26  -0.00    -0.00   0.00   0.00
   7   1    -0.04  -0.04   0.00    -0.08   0.05  -0.00     0.00   0.00  -0.00
   8   1    -0.12  -0.04  -0.00     0.04   0.06  -0.00    -0.00   0.00  -0.00
   9   1     0.02   0.03  -0.00     0.12  -0.08   0.00     0.00   0.00  -0.00
  10   1     0.02  -0.12   0.00    -0.04  -0.07  -0.00     0.00  -0.00  -0.00
  11   6     0.00   0.04  -0.00    -0.04   0.03  -0.00     0.00  -0.00  -0.00
  12   1     0.01  -0.05  -0.02    -0.03   0.03   0.03    -0.00  -0.00  -0.00
  13   1     0.02   0.03  -0.00    -0.03   0.01  -0.01    -0.00   0.00   0.01
  14   1    -0.03   0.05   0.04     0.03  -0.02  -0.00     0.00   0.00  -0.00
  15   6     0.04   0.02   0.00    -0.04   0.02  -0.00     0.01   0.01  -0.29
  16   1     0.04   0.04   0.04    -0.00  -0.00  -0.00    -0.25  -0.36   0.60
  17   1     0.05   0.04  -0.04     0.00  -0.00   0.00     0.21   0.32   0.46
  18   1    -0.07  -0.03   0.00    -0.03  -0.01   0.00     0.01  -0.01  -0.04
                     40                     41                     42
                        a                      a                      a 
 Frequencies --  2993.7406              3034.1026              3016.6293
 Red. masses --    99.0000                99.0000                99.0000
 Frc consts  --    99.0000                99.0000                99.0000
 IR Inten    --    99.0000                99.0000                99.0000
 Raman Activ --     0.0000                 0.0000                 0.0000
 Depolar     --     0.0000                 0.0000                 0.0000
 Atom AN      X      Y      Z        X      Y      Z        X      Y      Z
   1   6    -0.00  -0.00  -0.00     0.00   0.00  -0.00    -0.00   0.00  -0.00
   2   6     0.00  -0.00  -0.00     0.00  -0.00  -0.00     0.00  -0.01   0.00
   3   6    -0.00   0.00  -0.00    -0.00   0.00  -0.00     0.01   0.01   0.00
   4   6     0.00  -0.00   0.00    -0.01  -0.01   0.00    -0.01  -0.01  -0.00
   5   6    -0.00   0.01   0.01     0.01   0.00   0.00     0.00  -0.00   0.00
   6   6     0.00  -0.00  -0.00    -0.02   0.00  -0.00    -0.00  -0.00   0.00
   7   1     0.00   0.00  -0.00    -0.00  -0.01   0.00    -0.00  -0.00   0.00
   8   1     0.00  -0.00   0.00    -0.00   0.00   0.00    -0.01   0.01  -0.00
   9   1     0.00   0.01   0.00     0.03   0.05  -0.00     0.03   0.04  -0.00
  10   1    -0.01   0.00   0.00     0.06  -0.00   0.00    -0.00  -0.00   0.00
  11   6    -0.03   0.05   0.26     0.26   0.08   0.06    -0.00  -0.00   0.00
  12   1    -0.11  -0.01  -0.02    -0.78  -0.08  -0.44    -0.00  -0.00   0.00
  13   1     0.17  -0.26  -0.90     0.02   0.03   0.08     0.00  -0.00  -0.01
  14   1     0.06   0.08  -0.01    -0.15  -0.23   0.16     0.01   0.01  -0.01
  15   6    -0.00  -0.00  -0.00     0.00  -0.00   0.00     0.11   0.19   0.02
  16   1    -0.00  -0.00   0.01    -0.00  -0.00   0.00    -0.19  -0.26   0.52
  17   1     0.01   0.01   0.01    -0.00  -0.00  -0.00    -0.24  -0.36  -0.61
  18   1     0.00  -0.00  -0.00    -0.01   0.01  -0.00     0.04  -0.05   0.01
                     43                     44                     45
                        a                      a                      a 
 Frequencies --  3042.9092              3035.8483              3064.1548
 Red. masses --    99.0000                99.0000                99.0000
 Frc consts  --    99.0000                99.0000                99.0000
 IR Inten    --    99.0000                99.0000                99.0000
 Raman Activ --     0.0000                 0.0000                 0.0000
 Depolar     --     0.0000                 0.0000                 0.0000
 Atom AN      X      Y      Z        X      Y      Z        X      Y      Z
   1   6    -0.00  -0.00   0.00     0.00   0.00   0.00    -0.03  -0.04   0.00
   2   6    -0.01   0.02  -0.00    -0.00   0.00   0.00    -0.03   0.05  -0.00
   3   6     0.00  -0.01   0.00    -0.00   0.00   0.00     0.01   0.00   0.00
   4   6     0.01   0.01  -0.00    -0.01  -0.02   0.00     0.13   0.22  -0.00
   5   6    -0.00   0.00  -0.00     0.00   0.01  -0.00    -0.00   0.01  -0.00
   6   6     0.00  -0.00   0.00    -0.00  -0.00  -0.00     0.05  -0.00   0.00
   7   1     0.01   0.01  -0.00    -0.00  -0.00  -0.00     0.10   0.17  -0.00
   8   1     0.04  -0.07   0.00     0.00  -0.00  -0.00     0.10  -0.18   0.00
   9   1    -0.03  -0.04   0.00     0.03   0.06  -0.00    -0.45  -0.77   0.00
  10   1    -0.01   0.00  -0.00     0.00  -0.00  -0.00    -0.18   0.00  -0.00
  11   6    -0.00   0.00  -0.00     0.05   0.17  -0.11     0.02   0.02  -0.00
  12   1     0.02   0.00   0.01     0.30   0.05   0.14    -0.04  -0.00  -0.02
  13   1     0.00  -0.00  -0.00     0.03  -0.02  -0.15     0.01   0.00  -0.01
  14   1    -0.01  -0.01   0.01    -0.50  -0.64   0.40    -0.04  -0.06   0.04
  15   6     0.10  -0.22   0.01    -0.00   0.01  -0.00    -0.00   0.02  -0.00
  16   1    -0.01  -0.06   0.05    -0.00  -0.00   0.01    -0.01  -0.01   0.03
  17   1    -0.01  -0.06  -0.05    -0.00  -0.00  -0.01    -0.01  -0.01  -0.03
  18   1    -0.34   0.90  -0.03     0.01  -0.02   0.00     0.03  -0.07   0.00
                     46                     47                     48
                        a                      a                      a 
 Frequencies --  3066.5941              3072.5766              3083.7509
 Red. masses --    99.0000                99.0000                99.0000
 Frc consts  --    99.0000                99.0000                99.0000
 IR Inten    --    99.0000                99.0000                99.0000
 Raman Activ --     0.0000                 0.0000                 0.0000
 Depolar     --     0.0000                 0.0000                 0.0000
 Atom AN      X      Y      Z        X      Y      Z        X      Y      Z
   1   6     0.09   0.15  -0.00    -0.01  -0.02   0.00     0.10   0.18  -0.00
   2   6     0.07  -0.12   0.00     0.09  -0.16   0.00    -0.07   0.11  -0.00
   3   6     0.01  -0.00   0.00     0.01  -0.00   0.00    -0.01  -0.00  -0.00
   4   6     0.05   0.08  -0.00    -0.00   0.00   0.00    -0.01  -0.01   0.00
   5   6    -0.01   0.01  -0.00     0.01  -0.01   0.00     0.00  -0.01   0.00
   6   6    -0.11   0.00  -0.00     0.20   0.00   0.00     0.14  -0.00   0.00
   7   1    -0.32  -0.54   0.00     0.03   0.06  -0.00    -0.35  -0.60   0.00
   8   1    -0.25   0.43  -0.00    -0.32   0.58  -0.00     0.22  -0.38   0.00
   9   1    -0.17  -0.29   0.00     0.00  -0.00  -0.00     0.02   0.04  -0.00
  10   1     0.42  -0.00   0.00    -0.69  -0.00  -0.00    -0.48  -0.00  -0.00
  11   6    -0.00   0.00  -0.00     0.01   0.00   0.00     0.01   0.00   0.00
  12   1     0.02   0.00   0.01    -0.03  -0.00  -0.02    -0.02  -0.00  -0.01
  13   1     0.00  -0.00  -0.01     0.00   0.00   0.01     0.00   0.00   0.01
  14   1    -0.01  -0.01   0.01    -0.01  -0.01   0.01    -0.00  -0.00   0.00
  15   6     0.00  -0.01   0.00     0.00  -0.01   0.00    -0.00   0.01  -0.00
  16   1    -0.00  -0.00   0.01     0.00  -0.00  -0.00     0.00   0.00   0.00
  17   1    -0.00  -0.01  -0.01     0.00   0.00   0.00    -0.00   0.00  -0.00
  18   1    -0.01   0.03  -0.00    -0.02   0.04  -0.00     0.01  -0.03   0.00
