 Entering Gaussian System
 *********************************************
 Gaussian 98:
 frequency output generated by the xtb code
 *********************************************
                         Standard orientation:
 --------------------------------------------------------------------
  Center     Atomic     Atomic              Coordinates (Angstroms)
  Number     Number      Type              X           Y           Z
 --------------------------------------------------------------------
    1          6             0       -0.781389   -0.804159    0.548523
    2          1             0       -0.419792   -1.827190    0.548776
    3          1             0       -0.431669   -0.282034    1.435742
    4          1             0       -1.868527   -0.790164    0.555784
    5          6             0       -0.286108   -0.087418   -0.674103
    6          8             0        0.406609   -0.555984   -1.534892
    7          8             0       -0.714029    1.183032   -0.708676
    8          1             0       -0.384699    1.629473   -1.504266
 --------------------------------------------------------------------
     1 basis functions        1 primitive gaussians
     1 alpha electrons        1 beta electrons
 
 Harmonic frequencies (cm**-1), IR intensities (KM/Mole),
 Raman scattering activities (A**4/amu), Raman depolarization ratios,
 reduced masses (AMU), force constants (mDyne/A) and normal coordinates:
                      1                      2                      3
                        a                      a                      a 
 Frequencies --    26.1364               399.2990               528.5731
 Red. masses --     2.1099                10.5055                 6.2480
 Frc consts  --     0.0000                 0.0000                 0.0000
 IR Inten    --     0.0207                 0.0747                 0.2385
 Raman Activ --     0.0000                 0.0000                 0.0000
 Depolar     --     0.0000                 0.0000                 0.0000
 Atom AN      X      Y      Z        X      Y      Z        X      Y      Z
   1   6    -0.01  -0.00  -0.00     0.16  -0.37  -0.05    -0.03  -0.01  -0.02
   2   1    -0.42  -0.15  -0.26     0.18  -0.06  -0.27    -0.15  -0.05  -0.09
   3   1     0.49  -0.30  -0.01     0.05  -0.26   0.07    -0.19  -0.20   0.17
   4   1     0.01   0.48   0.31     0.05  -0.26   0.07    -0.01   0.13  -0.30
   5   6    -0.01  -0.00  -0.01    -0.17   0.22   0.16     0.52   0.18   0.32
   6   8     0.16   0.06   0.10    -0.19  -0.06   0.35    -0.18  -0.06  -0.11
   7   8    -0.15  -0.05  -0.09     0.11   0.35  -0.38    -0.05  -0.02  -0.03
   8   1    -0.01  -0.00  -0.01     0.11  -0.06  -0.14    -0.45  -0.16  -0.27
                      4                      5                      6
                        a                      a                      a 
 Frequencies --   564.7412               657.9673               897.4657
 Red. masses --    12.2994                 5.2418                10.8814
 Frc consts  --     0.0000                 0.0000                 0.0000
 IR Inten    --     0.6511                 0.8128                 0.4419
 Raman Activ --     0.0000                 0.0000                 0.0000
 Depolar     --     0.0000                 0.0000                 0.0000
 Atom AN      X      Y      Z        X      Y      Z        X      Y      Z
   1   6    -0.15  -0.16   0.34    -0.07  -0.02  -0.04    -0.18  -0.30   0.47
   2   1    -0.08  -0.06   0.17     0.05   0.02   0.03    -0.08  -0.10   0.19
   3   1    -0.04  -0.01   0.07     0.10   0.09  -0.11    -0.05  -0.09   0.14
   4   1    -0.04  -0.00   0.08    -0.02  -0.06   0.16    -0.05  -0.09   0.14
   5   6    -0.06  -0.20   0.20    -0.31  -0.11  -0.19     0.14   0.01  -0.23
   6   8    -0.07   0.58  -0.22     0.17   0.06   0.10     0.23  -0.17  -0.27
   7   8     0.24  -0.18  -0.29     0.29   0.10   0.18    -0.10   0.42  -0.07
   8   1     0.18  -0.26  -0.15    -0.64  -0.23  -0.39    -0.14   0.30   0.05
                      7                      8                      9
                        a                      a                      a 
 Frequencies --   984.1380              1009.1560              1158.9577
 Red. masses --     6.0395                 5.8598                 7.2329
 Frc consts  --     0.0000                 0.0000                 0.0000
 IR Inten    --     0.8559                 0.5120                 1.0872
 Raman Activ --     0.0000                 0.0000                 0.0000
 Depolar     --     0.0000                 0.0000                 0.0000
 Atom AN      X      Y      Z        X      Y      Z        X      Y      Z
   1   6    -0.24   0.31   0.21     0.34   0.12   0.21    -0.07   0.19   0.01
   2   1     0.22   0.17  -0.46    -0.18  -0.06  -0.11     0.09   0.08  -0.20
   3   1    -0.01  -0.29   0.24    -0.27  -0.25   0.35    -0.00  -0.10   0.08
   4   1    -0.06  -0.31   0.21     0.07   0.18  -0.47    -0.02  -0.11   0.07
   5   6     0.01   0.16  -0.11    -0.40  -0.14  -0.25     0.06  -0.24   0.05
   6   8     0.05   0.03  -0.10     0.09   0.03   0.05     0.18  -0.14  -0.21
   7   8     0.13  -0.37  -0.00     0.06   0.02   0.04    -0.26   0.35   0.22
   8   1    -0.09   0.14   0.07     0.01   0.00   0.01     0.31  -0.58  -0.18
                     10                     11                     12
                        a                      a                      a 
 Frequencies --  1245.1851              1367.8996              1440.2633
 Red. masses --     9.3297                 3.5590                 1.5831
 Frc consts  --     0.0000                 0.0000                 0.0000
 IR Inten    --     1.8077                 0.5331                 0.0942
 Raman Activ --     0.0000                 0.0000                 0.0000
 Depolar     --     0.0000                 0.0000                 0.0000
 Atom AN      X      Y      Z        X      Y      Z        X      Y      Z
   1   6    -0.00   0.15  -0.08     0.17   0.19  -0.39    -0.18  -0.06  -0.11
   2   1     0.12   0.08  -0.24    -0.22  -0.06   0.40     0.60   0.21   0.37
   3   1     0.05   0.01  -0.03    -0.32  -0.31   0.28     0.15  -0.40   0.15
   4   1     0.00  -0.00  -0.06     0.02  -0.18   0.49    -0.02   0.44  -0.08
   5   6     0.04  -0.69   0.34     0.01  -0.10   0.05    -0.04  -0.01  -0.02
   6   8    -0.03   0.10  -0.01    -0.02   0.03   0.02     0.00   0.00   0.00
   7   8     0.01   0.25  -0.15     0.01   0.02  -0.02     0.01   0.00   0.00
   8   1    -0.19   0.39   0.09    -0.03   0.05   0.01     0.00   0.00   0.00
                     13                     14                     15
                        a                      a                      a 
 Frequencies --  1441.3555              1803.2304              3036.8677
 Red. masses --     1.6552                13.2317                 1.9489
 Frc consts  --     0.0000                 0.0000                 0.0000
 IR Inten    --     0.2708                 2.5611                 0.0467
 Raman Activ --     0.0000                 0.0000                 0.0000
 Depolar     --     0.0000                 0.0000                 0.0000
 Atom AN      X      Y      Z        X      Y      Z        X      Y      Z
   1   6    -0.07   0.22  -0.00     0.03   0.01  -0.06     0.24   0.08   0.14
   2   1    -0.20  -0.04   0.34    -0.03  -0.00   0.04     0.03   0.01   0.02
   3   1     0.56  -0.28  -0.05     0.03   0.01  -0.02    -0.19  -0.32  -0.54
   4   1    -0.01  -0.49  -0.40     0.00   0.00  -0.04    -0.69   0.02   0.02
   5   6     0.01  -0.02  -0.01    -0.46   0.27   0.59     0.01   0.00   0.00
   6   8    -0.03   0.02   0.04     0.34  -0.22  -0.42    -0.00  -0.00  -0.00
   7   8    -0.00   0.01  -0.00     0.04  -0.05  -0.03    -0.00  -0.00  -0.00
   8   1     0.00   0.00  -0.00    -0.05   0.09   0.03     0.00   0.00  -0.00
                     16                     17                     18
                        a                      a                      a 
 Frequencies --  3042.7465              3074.8643              3453.5199
 Red. masses --     1.3894                 1.8357                 1.8475
 Frc consts  --     0.0000                 0.0000                 0.0000
 IR Inten    --     0.0483                 0.0931                 0.2609
 Raman Activ --     0.0000                 0.0000                 0.0000
 Depolar     --     0.0000                 0.0000                 0.0000
 Atom AN      X      Y      Z        X      Y      Z        X      Y      Z
   1   6    -0.10   0.05   0.15    -0.10   0.25   0.02    -0.00   0.00   0.00
   2   1    -0.06   0.16   0.02     0.32  -0.90  -0.00     0.00  -0.00  -0.00
   3   1    -0.25  -0.34  -0.56    -0.05  -0.02  -0.09     0.00   0.00   0.00
   4   1     0.67  -0.00   0.02     0.10   0.03   0.00    -0.01  -0.00   0.00
   5   6    -0.01   0.00   0.01    -0.00   0.01   0.00    -0.00   0.01  -0.01
   6   8     0.00  -0.00  -0.00     0.00  -0.00  -0.00     0.00  -0.00  -0.00
   7   8     0.00   0.00  -0.00     0.00  -0.00  -0.00     0.08   0.11  -0.20
   8   1    -0.00  -0.00   0.01    -0.00   0.00   0.00    -0.32  -0.46   0.79
