 Entering Gaussian System
 *********************************************
 Gaussian 98:
 frequency output generated by the xtb code
 *********************************************
                         Standard orientation:
 --------------------------------------------------------------------
  Center     Atomic     Atomic              Coordinates (Angstroms)
  Number     Number      Type              X           Y           Z
 --------------------------------------------------------------------
    1          6             0       -0.781386   -0.804164    0.548518
    2          1             0       -0.419784   -1.827193    0.548772
    3          1             0       -0.431673   -0.282038    1.435740
    4          1             0       -1.868525   -0.790175    0.555776
    5          6             0       -0.286105   -0.087419   -0.674104
    6          8             0        0.406617   -0.555979   -1.534891
    7          8             0       -0.714033    1.183029   -0.708677
    8          1             0       -0.384702    1.629474   -1.504264
 --------------------------------------------------------------------
     1 basis functions        1 primitive gaussians
     1 alpha electrons        1 beta electrons
 
 Harmonic frequencies (cm**-1), IR intensities (KM/Mole),
 Raman scattering activities (A**4/amu), Raman depolarization ratios,
 reduced masses (AMU), force constants (mDyne/A) and normal coordinates:
                      1                      2                      3
                        a                      a                      a 
 Frequencies --    26.1364               528.5731               657.9673
 Red. masses --    99.0000                99.0000                99.0000
 Frc consts  --    99.0000                99.0000                99.0000
 IR Inten    --    99.0000                99.0000                99.0000
 Raman Activ --     0.0000                 0.0000                 0.0000
 Depolar     --     0.0000                 0.0000                 0.0000
 Atom AN      X      Y      Z        X      Y      Z        X      Y      Z
   1   6    -0.01  -0.00  -0.00    -0.03  -0.01  -0.02    -0.07  -0.02  -0.04
   2   1    -0.42  -0.15  -0.26    -0.15  -0.05  -0.09     0.05   0.02   0.03
   3   1     0.49  -0.30  -0.01    -0.19  -0.20   0.17     0.10   0.09  -0.11
   4   1     0.01   0.48   0.31    -0.01   0.13  -0.30    -0.02  -0.06   0.16
   5   6    -0.01  -0.00  -0.01     0.52   0.18   0.32    -0.31  -0.11  -0.19
   6   8     0.16   0.06   0.10    -0.18  -0.06  -0.11     0.17   0.06   0.10
   7   8    -0.15  -0.05  -0.09    -0.05  -0.02  -0.03     0.29   0.10   0.18
   8   1    -0.01  -0.00  -0.01    -0.45  -0.16  -0.27    -0.64  -0.23  -0.39
                      4                      5                      6
                        a                      a                      a 
 Frequencies --   399.2990              1009.1560               564.7412
 Red. masses --    99.0000                99.0000                99.0000
 Frc consts  --    99.0000                99.0000                99.0000
 IR Inten    --    99.0000                99.0000                99.0000
 Raman Activ --     0.0000                 0.0000                 0.0000
 Depolar     --     0.0000                 0.0000                 0.0000
 Atom AN      X      Y      Z        X      Y      Z        X      Y      Z
   1   6     0.16  -0.37  -0.05     0.34   0.12   0.21    -0.15  -0.16   0.34
   2   1     0.18  -0.06  -0.27    -0.18  -0.06  -0.11    -0.08  -0.06   0.17
   3   1     0.05  -0.26   0.07    -0.27  -0.25   0.35    -0.04  -0.01   0.07
   4   1     0.05  -0.26   0.07     0.07   0.18  -0.47    -0.04  -0.00   0.08
   5   6    -0.17   0.22   0.16    -0.40  -0.14  -0.25    -0.06  -0.20   0.20
   6   8    -0.19  -0.06   0.35     0.09   0.03   0.05    -0.07   0.58  -0.22
   7   8     0.11   0.35  -0.38     0.06   0.02   0.04     0.24  -0.18  -0.29
   8   1     0.11  -0.06  -0.14     0.01   0.00   0.01     0.18  -0.26  -0.15
                      7                      8                      9
                        a                      a                      a 
 Frequencies --   897.4657              1367.8996               984.1380
 Red. masses --    99.0000                99.0000                99.0000
 Frc consts  --    99.0000                99.0000                99.0000
 IR Inten    --    99.0000                99.0000                99.0000
 Raman Activ --     0.0000                 0.0000                 0.0000
 Depolar     --     0.0000                 0.0000                 0.0000
 Atom AN      X      Y      Z        X      Y      Z        X      Y      Z
   1   6    -0.18  -0.30   0.47     0.17   0.19  -0.39    -0.24   0.31   0.21
   2   1    -0.08  -0.10   0.19    -0.22  -0.06   0.40     0.22   0.17  -0.46
   3   1    -0.05  -0.09   0.14    -0.32  -0.31   0.28    -0.01  -0.29   0.24
   4   1    -0.05  -0.09   0.14     0.02  -0.18   0.49    -0.06  -0.31   0.21
   5   6     0.14   0.01  -0.23     0.01  -0.10   0.05     0.01   0.16  -0.11
   6   8     0.23  -0.17  -0.27    -0.02   0.03   0.02     0.05   0.03  -0.10
   7   8    -0.10   0.42  -0.07     0.01   0.02  -0.02     0.13  -0.37  -0.00
   8   1    -0.14   0.30   0.05    -0.03   0.05   0.01    -0.09   0.14   0.07
                     10                     11                     12
                        a                      a                      a 
 Frequencies --  1158.9577              1245.1851              1440.2633
 Red. masses --    99.0000                99.0000                99.0000
 Frc consts  --    99.0000                99.0000                99.0000
 IR Inten    --    99.0000                99.0000                99.0000
 Raman Activ --     0.0000                 0.0000                 0.0000
 Depolar     --     0.0000                 0.0000                 0.0000
 Atom AN      X      Y      Z        X      Y      Z        X      Y      Z
   1   6    -0.07   0.19   0.01    -0.00   0.15  -0.08    -0.18  -0.06  -0.11
   2   1     0.09   0.08  -0.20     0.12   0.08  -0.24     0.60   0.21   0.37
   3   1    -0.00  -0.10   0.08     0.05   0.01  -0.03     0.15  -0.40   0.15
   4   1    -0.02  -0.11   0.07     0.00  -0.00  -0.06    -0.02   0.44  -0.08
   5   6     0.06  -0.24   0.05     0.04  -0.69   0.34    -0.04  -0.01  -0.02
   6   8     0.18  -0.14  -0.21    -0.03   0.10  -0.01     0.00   0.00   0.00
   7   8    -0.26   0.35   0.22     0.01   0.25  -0.15     0.01   0.00   0.00
   8   1     0.31  -0.58  -0.18    -0.19   0.39   0.09     0.00   0.00   0.00
                     13                     14                     15
                        a                      a                      a 
 Frequencies --  1441.3555              1803.2304              3036.8677
 Red. masses --    99.0000                99.0000                99.0000
 Frc consts  --    99.0000                99.0000                99.0000
 IR Inten    --    99.0000                99.0000                99.0000
 Raman Activ --     0.0000                 0.0000                 0.0000
 Depolar     --     0.0000                 0.0000                 0.0000
 Atom AN      X      Y      Z        X      Y      Z        X      Y      Z
   1   6    -0.07   0.22  -0.00     0.03   0.01  -0.06     0.24   0.08   0.14
   2   1    -0.20  -0.04   0.34    -0.03  -0.00   0.04     0.03   0.01   0.02
   3   1     0.56  -0.28  -0.05     0.03   0.01  -0.02    -0.19  -0.32  -0.54
   4   1    -0.01  -0.49  -0.40     0.00   0.00  -0.04    -0.69   0.02   0.02
   5   6     0.01  -0.02  -0.01    -0.46   0.27   0.59     0.01   0.00   0.00
   6   8    -0.03   0.02   0.04     0.34  -0.22  -0.42    -0.00  -0.00  -0.00
   7   8    -0.00   0.01  -0.00     0.04  -0.05  -0.03    -0.00  -0.00  -0.00
   8   1     0.00   0.00  -0.00    -0.05   0.09   0.03     0.00   0.00  -0.00
                     16                     17                     18
                        a                      a                      a 
 Frequencies --  3042.7465              3074.8643              3453.5199
 Red. masses --    99.0000                99.0000                99.0000
 Frc consts  --    99.0000                99.0000                99.0000
 IR Inten    --    99.0000                99.0000                99.0000
 Raman Activ --     0.0000                 0.0000                 0.0000
 Depolar     --     0.0000                 0.0000                 0.0000
 Atom AN      X      Y      Z        X      Y      Z        X      Y      Z
   1   6    -0.10   0.05   0.15    -0.10   0.25   0.02    -0.00   0.00   0.00
   2   1    -0.06   0.16   0.02     0.32  -0.90  -0.00     0.00  -0.00  -0.00
   3   1    -0.25  -0.34  -0.56    -0.05  -0.02  -0.09     0.00   0.00   0.00
   4   1     0.67  -0.00   0.02     0.10   0.03   0.00    -0.01  -0.00   0.00
   5   6    -0.01   0.00   0.01    -0.00   0.01   0.00    -0.00   0.01  -0.01
   6   8     0.00  -0.00  -0.00     0.00  -0.00  -0.00     0.00  -0.00  -0.00
   7   8     0.00   0.00  -0.00     0.00  -0.00  -0.00     0.08   0.11  -0.20
   8   1    -0.00  -0.00   0.01    -0.00   0.00   0.00    -0.32  -0.46   0.79
