 Entering Gaussian System
 *********************************************
 Gaussian 98:
 frequency output generated by the xtb code
 *********************************************
                         Standard orientation:
 --------------------------------------------------------------------
  Center     Atomic     Atomic              Coordinates (Angstroms)
  Number     Number      Type              X           Y           Z
 --------------------------------------------------------------------
    1          6             0        0.000002    0.000001    0.658395
    2          1             0        0.000009    0.913828    1.228938
    3          1             0       -0.000000   -0.913824    1.228941
    4          6             0       -0.000002   -0.000001   -0.658395
    5          1             0       -0.000009   -0.913828   -1.228938
    6          1             0        0.000000    0.913824   -1.228941
 --------------------------------------------------------------------
     1 basis functions        1 primitive gaussians
     1 alpha electrons        1 beta electrons
 
 Harmonic frequencies (cm**-1), IR intensities (KM/Mole),
 Raman scattering activities (A**4/amu), Raman depolarization ratios,
 reduced masses (AMU), force constants (mDyne/A) and normal coordinates:
                      1                      2                      3
                        a                      a                      a 
 Frequencies --   838.1033               879.0271              1019.5220
 Red. masses --     1.4280                 5.0678                 2.5892
 Frc consts  --     0.0000                 0.0000                 0.0000
 IR Inten    --     0.0214                 0.0006                 0.2881
 Raman Activ --     0.0000                 0.0000                 0.0000
 Depolar     --     0.0000                 0.0000                 0.0000
 Atom AN      X      Y      Z        X      Y      Z        X      Y      Z
   1   6    -0.00  -0.14  -0.00     0.43  -0.00  -0.00     0.27  -0.00   0.00
   2   1     0.00   0.24  -0.43    -0.40  -0.00   0.00    -0.46   0.00  -0.00
   3   1     0.00   0.24   0.43    -0.40   0.00   0.00    -0.46  -0.00  -0.00
   4   6    -0.00  -0.14  -0.00    -0.43   0.00  -0.00     0.27  -0.00   0.00
   5   1     0.00   0.24  -0.43     0.40  -0.00   0.00    -0.46   0.00  -0.00
   6   1     0.00   0.24   0.43     0.40   0.00   0.00    -0.46  -0.00  -0.00
                      4                      5                      6
                        a                      a                      a 
 Frequencies --  1037.0556              1180.7792              1389.6482
 Red. masses --     1.0079                 5.2337                 1.7827
 Frc consts  --     0.0000                 0.0000                 0.0000
 IR Inten    --     0.0007                 0.0006                 0.0000
 Raman Activ --     0.0000                 0.0000                 0.0000
 Depolar     --     0.0000                 0.0000                 0.0000
 Atom AN      X      Y      Z        X      Y      Z        X      Y      Z
   1   6    -0.00   0.00  -0.00    -0.00  -0.44  -0.00    -0.00   0.00  -0.19
   2   1     0.50  -0.00   0.00     0.00   0.13  -0.37    -0.00   0.21  -0.43
   3   1    -0.50   0.00   0.00     0.00   0.13   0.37    -0.00  -0.21  -0.43
   4   6     0.00   0.00  -0.00     0.00   0.44  -0.00     0.00  -0.00   0.19
   5   1     0.50  -0.00   0.00    -0.00  -0.13   0.37     0.00  -0.21   0.43
   6   1    -0.50   0.00   0.00    -0.00  -0.13  -0.37     0.00   0.21   0.43
                      7                      8                      9
                        a                      a                      a 
 Frequencies --  1414.3475              1702.4291              3093.0734
 Red. masses --     2.1525                10.6462                 1.4445
 Frc consts  --     0.0000                 0.0000                 0.0000
 IR Inten    --     0.0896                 0.0000                 0.3221
 Raman Activ --     0.0000                 0.0000                 0.0000
 Depolar     --     0.0000                 0.0000                 0.0000
 Atom AN      X      Y      Z        X      Y      Z        X      Y      Z
   1   6    -0.00  -0.00   0.23     0.00  -0.00   0.66    -0.00   0.00  -0.14
   2   1     0.00   0.26  -0.39     0.00   0.16  -0.06    -0.00   0.43   0.24
   3   1    -0.00  -0.26  -0.39    -0.00  -0.16  -0.06     0.00  -0.43   0.24
   4   6    -0.00   0.00   0.23    -0.00  -0.00  -0.66    -0.00   0.00  -0.14
   5   1     0.00   0.26  -0.39    -0.00  -0.16   0.06    -0.00   0.43   0.24
   6   1    -0.00  -0.26  -0.39    -0.00   0.16   0.06     0.00  -0.43   0.24
                     10                     11                     12
                        a                      a                      a 
 Frequencies --  3098.5069              3104.6238              3121.9076
 Red. masses --     1.5979                 2.0185                 2.1691
 Frc consts  --     0.0000                 0.0000                 0.0000
 IR Inten    --     0.0000                 0.0003                 0.4596
 Raman Activ --     0.0000                 0.0000                 0.0000
 Depolar     --     0.0000                 0.0000                 0.0000
 Atom AN      X      Y      Z        X      Y      Z        X      Y      Z
   1   6     0.00  -0.00   0.16    -0.00  -0.21  -0.00     0.00   0.23   0.00
   2   1    -0.00  -0.42  -0.24     0.00   0.40   0.27    -0.00  -0.40  -0.26
   3   1     0.00   0.42  -0.24     0.00   0.40  -0.27    -0.00  -0.40   0.26
   4   6    -0.00   0.00  -0.16     0.00   0.21   0.00     0.00   0.23   0.00
   5   1     0.00   0.42   0.24    -0.00  -0.40  -0.27    -0.00  -0.40  -0.26
   6   1    -0.00  -0.42   0.24    -0.00  -0.40   0.27    -0.00  -0.40   0.26
