 Entering Gaussian System
 *********************************************
 Gaussian 98:
 frequency output generated by the xtb code
 *********************************************
                         Standard orientation:
 --------------------------------------------------------------------
  Center     Atomic     Atomic              Coordinates (Angstroms)
  Number     Number      Type              X           Y           Z
 --------------------------------------------------------------------
    1          6             0       -0.193332   -1.189706    0.950462
    2          1             0        0.163169   -0.685368    0.036748
    3          1             0       -1.295630   -1.199113    0.918348
    4          8             0        0.247319   -0.487279    2.087977
    5          6             0       -0.195511    0.848175    2.129722
    6          1             0       -1.297965    0.878545    2.127847
    7          1             0        0.155039    1.388022    1.234173
    8          6             0        0.345479   -2.609617    1.014879
    9          1             0       -0.011011   -3.097792    1.917474
   10          1             0        0.014898   -3.172948    0.146781
   11          1             0        1.431357   -2.590610    1.039072
   12          6             0        0.349053    1.503627    3.388487
   13          1             0        1.434894    1.473065    3.379023
   14          1             0        0.018852    2.537215    3.442702
   15          1             0       -0.003358    0.967045    4.264829
 --------------------------------------------------------------------
     1 basis functions        1 primitive gaussians
     1 alpha electrons        1 beta electrons
 
 Harmonic frequencies (cm**-1), IR intensities (KM/Mole),
 Raman scattering activities (A**4/amu), Raman depolarization ratios,
 reduced masses (AMU), force constants (mDyne/A) and normal coordinates:
                      1                      2                      3
                        a                      a                      a 
 Frequencies --    97.7496                98.4695               183.9194
 Red. masses --     5.2749                10.9252                 9.2737
 Frc consts  --     0.0000                 0.0000                 0.0000
 IR Inten    --     0.0070                 0.3485                 0.1105
 Raman Activ --     0.0000                 0.0000                 0.0000
 Depolar     --     0.0000                 0.0000                 0.0000
 Atom AN      X      Y      Z        X      Y      Z        X      Y      Z
   1   6    -0.32  -0.11   0.20    -0.04  -0.01   0.02     0.10   0.02   0.19
   2   1    -0.27  -0.00   0.01     0.04   0.08   0.07     0.02   0.06   0.08
   3   1    -0.10  -0.13   0.21    -0.01  -0.07  -0.09     0.03   0.06   0.08
   4   8     0.01   0.01  -0.01    -0.58  -0.20   0.35     0.25  -0.18   0.31
   5   6     0.32   0.11  -0.20    -0.02  -0.01   0.01     0.10  -0.17   0.08
   6   1     0.10   0.12  -0.22    -0.00   0.12   0.00     0.03  -0.10  -0.01
   7   1     0.26   0.01  -0.00     0.05  -0.10  -0.03     0.02  -0.10  -0.01
   8   6     0.15   0.05  -0.09     0.27   0.10  -0.16    -0.19  -0.11  -0.39
   9   1     0.27   0.00   0.06     0.01  -0.07  -0.13    -0.06  -0.12  -0.16
  10   1    -0.09  -0.03   0.05     0.22   0.07  -0.13    -0.13   0.10  -0.17
  11   1     0.05   0.11  -0.25     0.07   0.10   0.08    -0.05  -0.12  -0.15
  12   6    -0.16  -0.06   0.10     0.27   0.09  -0.16    -0.19   0.39  -0.10
  13   1    -0.05  -0.16   0.22     0.07  -0.12  -0.04    -0.05   0.18   0.03
  14   1     0.08   0.03  -0.05     0.22   0.08  -0.13    -0.12   0.10  -0.17
  15   1    -0.27   0.04  -0.02     0.00   0.15  -0.00    -0.06   0.20   0.02
                      4                      5                      6
                        a                      a                      a 
 Frequencies --   202.1369               208.9816               406.8886
 Red. masses --     2.5455                 3.6385                 9.3046
 Frc consts  --     0.0000                 0.0000                 0.0000
 IR Inten    --     0.0046                 0.2979                 0.0825
 Raman Activ --     0.0000                 0.0000                 0.0000
 Depolar     --     0.0000                 0.0000                 0.0000
 Atom AN      X      Y      Z        X      Y      Z        X      Y      Z
   1   6    -0.22  -0.08   0.13    -0.12  -0.04   0.07     0.23  -0.06   0.35
   2   1    -0.14  -0.01   0.01    -0.12  -0.03  -0.03     0.06  -0.03   0.09
   3   1    -0.06  -0.06   0.11    -0.04  -0.02   0.12     0.06  -0.02   0.09
   4   8     0.01   0.00  -0.00     0.31   0.11  -0.19     0.00   0.37   0.21
   5   6     0.21   0.07  -0.13    -0.12  -0.04   0.07    -0.23   0.27  -0.22
   6   1     0.06   0.06  -0.11    -0.04  -0.10   0.09    -0.07   0.06  -0.06
   7   1     0.14   0.01  -0.02    -0.13   0.04   0.02    -0.06   0.06  -0.07
   8   6     0.03   0.01  -0.02    -0.02  -0.00   0.02    -0.02  -0.22  -0.16
   9   1    -0.23  -0.18  -0.20    -0.25  -0.15  -0.17    -0.01  -0.18  -0.11
  10   1     0.33   0.12  -0.20     0.29   0.10  -0.17    -0.11   0.11  -0.12
  11   1    -0.00   0.09   0.33    -0.01   0.06   0.34    -0.00  -0.18  -0.12
  12   6    -0.03  -0.01   0.02    -0.02  -0.02   0.01     0.02  -0.25  -0.11
  13   1    -0.00   0.33  -0.08    -0.01  -0.33   0.12     0.00  -0.19  -0.10
  14   1    -0.32  -0.11   0.19     0.30   0.10  -0.18     0.11  -0.05   0.16
  15   1     0.22  -0.25  -0.05    -0.26   0.23   0.04     0.01  -0.19  -0.10
                      7                      8                      9
                        a                      a                      a 
 Frequencies --   432.4030               834.8304               845.4087
 Red. masses --     9.9725                 1.8640                 2.0320
 Frc consts  --     0.0000                 0.0000                 0.0000
 IR Inten    --     0.0845                 0.0014                 0.1068
 Raman Activ --     0.0000                 0.0000                 0.0000
 Depolar     --     0.0000                 0.0000                 0.0000
 Atom AN      X      Y      Z        X      Y      Z        X      Y      Z
   1   6    -0.02   0.32   0.15    -0.14  -0.05   0.09    -0.13  -0.05   0.08
   2   1    -0.01   0.14   0.07     0.30  -0.18   0.05     0.27  -0.20   0.03
   3   1    -0.01   0.14   0.07    -0.03   0.27  -0.22    -0.02   0.28  -0.18
   4   8     0.20  -0.14   0.24     0.00  -0.00  -0.00     0.10   0.04  -0.06
   5   6    -0.02  -0.29  -0.20     0.14   0.05  -0.09    -0.13  -0.04   0.08
   6   1    -0.01  -0.13  -0.09     0.03  -0.05   0.34    -0.03   0.01  -0.34
   7   1    -0.01  -0.13  -0.09    -0.29  -0.04  -0.18     0.27   0.07   0.18
   8   6    -0.07   0.43   0.12    -0.08  -0.03   0.05    -0.09  -0.03   0.05
   9   1    -0.02   0.15   0.05     0.22  -0.23  -0.02     0.22  -0.24  -0.02
  10   1     0.00   0.08   0.05     0.09   0.03  -0.05     0.09   0.03  -0.06
  11   1    -0.02   0.15   0.06    -0.02   0.31  -0.10    -0.02   0.31  -0.10
  12   6    -0.07  -0.32  -0.31     0.08   0.03  -0.05    -0.09  -0.03   0.05
  13   1    -0.02  -0.12  -0.10     0.02   0.07   0.31    -0.02  -0.07  -0.32
  14   1     0.00  -0.09  -0.05    -0.09  -0.03   0.05     0.09   0.03  -0.06
  15   1    -0.02  -0.12  -0.11    -0.22  -0.13  -0.19     0.22   0.14   0.20
                     10                     11                     12
                        a                      a                      a 
 Frequencies --   893.0995               972.1732              1085.4926
 Red. masses --     7.0809                 7.5678                 8.4482
 Frc consts  --     0.0000                 0.0000                 0.0000
 IR Inten    --     0.5390                 0.4572                 0.2590
 Raman Activ --     0.0000                 0.0000                 0.0000
 Depolar     --     0.0000                 0.0000                 0.0000
 Atom AN      X      Y      Z        X      Y      Z        X      Y      Z
   1   6     0.13   0.05   0.25    -0.10   0.10  -0.11    -0.19   0.37  -0.11
   2   1     0.03  -0.08  -0.00    -0.02   0.12   0.03    -0.05   0.09  -0.04
   3   1     0.03  -0.08  -0.00    -0.02   0.12   0.03    -0.05   0.09  -0.04
   4   8    -0.26   0.18  -0.32     0.00   0.40   0.23     0.00  -0.09  -0.05
   5   6     0.13  -0.24   0.08     0.10  -0.04   0.14     0.20   0.09   0.37
   6   1     0.03   0.04   0.07     0.02   0.09   0.09     0.05   0.01   0.09
   7   1     0.03   0.04   0.07     0.02   0.09   0.09     0.05   0.01   0.09
   8   6     0.05   0.16   0.18    -0.00  -0.30  -0.18     0.21  -0.26   0.19
   9   1    -0.01  -0.17  -0.08     0.03   0.10   0.06     0.04  -0.24  -0.05
  10   1    -0.18   0.36  -0.09     0.18  -0.38   0.08    -0.07   0.12  -0.04
  11   1     0.02  -0.16  -0.10    -0.00   0.08   0.08     0.06  -0.23  -0.06
  12   6     0.05  -0.23  -0.05    -0.00  -0.30  -0.17    -0.21   0.03  -0.32
  13   1     0.02   0.16   0.09     0.00   0.11   0.03    -0.06  -0.17  -0.17
  14   1    -0.19  -0.10  -0.36    -0.18  -0.12  -0.37     0.07   0.03   0.12
  15   1    -0.01   0.15   0.11    -0.03   0.10   0.05    -0.04  -0.16  -0.18
                     13                     14                     15
                        a                      a                      a 
 Frequencies --  1092.2437              1134.4102              1141.0923
 Red. masses --     9.4426                11.4622                 4.6287
 Frc consts  --     0.0000                 0.0000                 0.0000
 IR Inten    --     0.2576                 1.3012                 0.0288
 Raman Activ --     0.0000                 0.0000                 0.0000
 Depolar     --     0.0000                 0.0000                 0.0000
 Atom AN      X      Y      Z        X      Y      Z        X      Y      Z
   1   6    -0.07   0.44   0.14    -0.14  -0.22  -0.37    -0.29  -0.11   0.17
   2   1    -0.04   0.19   0.06    -0.01  -0.12  -0.10     0.22   0.10   0.22
   3   1    -0.03   0.20   0.05    -0.02  -0.12  -0.09    -0.06  -0.05  -0.32
   4   8    -0.13   0.10  -0.17     0.00   0.52   0.30    -0.00   0.01   0.01
   5   6    -0.07  -0.34  -0.31     0.14  -0.43  -0.00     0.29   0.09  -0.17
   6   1    -0.03  -0.14  -0.15     0.02  -0.13  -0.06     0.06  -0.30   0.12
   7   1    -0.04  -0.14  -0.14     0.02  -0.15  -0.05    -0.22   0.24  -0.03
   8   6     0.13  -0.33   0.02     0.02   0.10   0.09     0.17   0.06  -0.10
   9   1     0.05  -0.10   0.01    -0.02  -0.08  -0.04    -0.14   0.19  -0.00
  10   1     0.06  -0.12   0.02    -0.07   0.15  -0.04    -0.08  -0.03   0.05
  11   1     0.04  -0.10   0.02     0.00  -0.06  -0.06     0.04  -0.22   0.06
  12   6     0.13   0.15   0.30    -0.01   0.13   0.04    -0.17  -0.06   0.10
  13   1     0.04   0.04   0.10    -0.00  -0.08  -0.02    -0.04  -0.06  -0.22
  14   1     0.06   0.04   0.12     0.07   0.04   0.15     0.08   0.03  -0.04
  15   1     0.05   0.04   0.09     0.02  -0.08  -0.04     0.14   0.09   0.16
                     16                     17                     18
                        a                      a                      a 
 Frequencies --  1167.1618              1167.5022              1251.6252
 Red. masses --     8.1828                 6.8285                 2.0324
 Frc consts  --     0.0000                 0.0000                 0.0000
 IR Inten    --     0.7206                 0.6190                 0.0011
 Raman Activ --     0.0000                 0.0000                 0.0000
 Depolar     --     0.0000                 0.0000                 0.0000
 Atom AN      X      Y      Z        X      Y      Z        X      Y      Z
   1   6     0.36  -0.01   0.19     0.10   0.13  -0.34    -0.06  -0.02   0.03
   2   1    -0.09  -0.05  -0.06    -0.21  -0.02  -0.19     0.02  -0.39  -0.20
   3   1     0.07  -0.03   0.21     0.02   0.00   0.21    -0.02   0.39   0.20
   4   8    -0.31   0.11  -0.18    -0.03  -0.15   0.27    -0.00  -0.00  -0.00
   5   6     0.36  -0.17   0.10     0.11   0.23  -0.28     0.06   0.02  -0.04
   6   1     0.07  -0.17   0.13     0.02  -0.19   0.10     0.02   0.37   0.24
   7   1    -0.09   0.07   0.02    -0.21   0.18  -0.08    -0.02  -0.36  -0.24
   8   6    -0.22  -0.00  -0.12    -0.07  -0.07   0.21     0.17   0.06  -0.10
   9   1     0.08   0.05   0.05     0.11  -0.26  -0.03    -0.11   0.15  -0.01
  10   1     0.13  -0.16   0.01     0.01   0.14  -0.07    -0.05  -0.02   0.03
  11   1    -0.06   0.27   0.04    -0.01   0.08  -0.10     0.04  -0.17   0.05
  12   6    -0.22   0.10  -0.06    -0.07  -0.14   0.17    -0.17  -0.06   0.10
  13   1    -0.06  -0.17  -0.21    -0.01   0.04  -0.12    -0.04  -0.04  -0.17
  14   1     0.13   0.07   0.15     0.01  -0.01  -0.16     0.05   0.02  -0.03
  15   1     0.08  -0.07  -0.02     0.12   0.16   0.21     0.11   0.06   0.13
                     19                     20                     21
                        a                      a                      a 
 Frequencies --  1259.4068              1333.0034              1357.1931
 Red. masses --     2.2768                 3.3162                 3.9563
 Frc consts  --     0.0000                 0.0000                 0.0000
 IR Inten    --     0.1145                 0.4109                 0.1015
 Raman Activ --     0.0000                 0.0000                 0.0000
 Depolar     --     0.0000                 0.0000                 0.0000
 Atom AN      X      Y      Z        X      Y      Z        X      Y      Z
   1   6     0.04   0.01  -0.02    -0.03   0.28   0.12    -0.05   0.30   0.09
   2   1     0.01   0.39   0.20     0.01  -0.37  -0.21     0.05  -0.33  -0.17
   3   1     0.02  -0.38  -0.22     0.00  -0.38  -0.20     0.00  -0.35  -0.14
   4   8     0.14   0.05  -0.09    -0.00   0.03   0.02     0.09  -0.06   0.11
   5   6     0.03   0.01  -0.02     0.03   0.24   0.18    -0.05  -0.23  -0.22
   6   1     0.02   0.38   0.22    -0.00  -0.37  -0.22     0.00   0.30   0.23
   7   1     0.00  -0.37  -0.24    -0.01  -0.37  -0.22     0.05   0.32   0.21
   8   6    -0.15  -0.05   0.09    -0.06   0.00  -0.09    -0.07   0.08  -0.06
   9   1     0.10  -0.13   0.01     0.05  -0.01   0.00     0.09  -0.10  -0.03
  10   1     0.05   0.02  -0.03     0.06  -0.13   0.03     0.10  -0.18   0.06
  11   1    -0.04   0.15  -0.05    -0.01  -0.03   0.04    -0.01  -0.13   0.02
  12   6    -0.15  -0.05   0.10     0.06  -0.07   0.05    -0.07   0.02  -0.10
  13   1    -0.04  -0.04  -0.16     0.01   0.02  -0.05    -0.01   0.04   0.13
  14   1     0.05   0.02  -0.03    -0.06  -0.04  -0.12     0.10   0.04   0.19
  15   1     0.10   0.06   0.12    -0.05  -0.00  -0.01     0.09   0.08   0.07
                     22                     23                     24
                        a                      a                      a 
 Frequencies --  1397.7340              1404.0148              1474.4565
 Red. masses --     3.2949                 3.6951                 1.5397
 Frc consts  --     0.0000                 0.0000                 0.0000
 IR Inten    --     0.1706                 0.0888                 0.0003
 Raman Activ --     0.0000                 0.0000                 0.0000
 Depolar     --     0.0000                 0.0000                 0.0000
 Atom AN      X      Y      Z        X      Y      Z        X      Y      Z
   1   6     0.01  -0.05  -0.02     0.03  -0.15  -0.04     0.03   0.01  -0.02
   2   1     0.03   0.05   0.05    -0.00   0.14   0.08    -0.01   0.02  -0.00
   3   1     0.00   0.04   0.06    -0.00   0.14   0.08     0.01  -0.02   0.00
   4   8    -0.00  -0.02  -0.01    -0.04   0.03  -0.05     0.00   0.00   0.00
   5   6    -0.01  -0.04  -0.04     0.03   0.11   0.11    -0.03  -0.01   0.02
   6   1    -0.00   0.08   0.01    -0.00  -0.14  -0.08    -0.01  -0.00  -0.02
   7   1    -0.03   0.07   0.02    -0.00  -0.14  -0.08     0.01   0.00   0.01
   8   6    -0.10   0.30   0.01    -0.09   0.29   0.03     0.13   0.04  -0.08
   9   1     0.13  -0.30  -0.12     0.11  -0.28  -0.12    -0.09  -0.25  -0.19
  10   1     0.19  -0.29   0.14     0.17  -0.26   0.13    -0.42  -0.15   0.25
  11   1    -0.00  -0.35  -0.04    -0.00  -0.32  -0.05     0.00   0.22   0.24
  12   6     0.10   0.16   0.25    -0.09  -0.17  -0.24    -0.12  -0.04   0.08
  13   1     0.00  -0.21  -0.28    -0.00   0.20   0.26    -0.00   0.32   0.07
  14   1    -0.19  -0.02  -0.32     0.17   0.02   0.29     0.41   0.15  -0.25
  15   1    -0.13  -0.26  -0.20     0.11   0.24   0.18     0.09  -0.29  -0.13
                     25                     26                     27
                        a                      a                      a 
 Frequencies --  1475.2371              1493.9356              1495.4856
 Red. masses --     1.5372                 1.5514                 1.5513
 Frc consts  --     0.0000                 0.0000                 0.0000
 IR Inten    --     0.0298                 0.0115                 0.0441
 Raman Activ --     0.0000                 0.0000                 0.0000
 Depolar     --     0.0000                 0.0000                 0.0000
 Atom AN      X      Y      Z        X      Y      Z        X      Y      Z
   1   6     0.03   0.01  -0.02     0.03  -0.06   0.02    -0.01  -0.03  -0.03
   2   1    -0.01   0.01  -0.00    -0.18   0.05  -0.05    -0.02   0.03   0.00
   3   1     0.01  -0.01   0.00    -0.00   0.11  -0.16    -0.00   0.03  -0.00
   4   8    -0.00  -0.00   0.00    -0.00   0.02   0.01     0.00  -0.00   0.01
   5   6     0.03   0.01  -0.02    -0.03  -0.01  -0.06    -0.01   0.04   0.01
   6   1     0.01   0.00   0.02     0.00  -0.09   0.18    -0.00  -0.01  -0.03
   7   1    -0.01  -0.00  -0.02     0.18  -0.02   0.07    -0.02  -0.02  -0.02
   8   6     0.12   0.04  -0.08    -0.07   0.01  -0.12    -0.08  -0.00  -0.13
   9   1    -0.09  -0.25  -0.19     0.40   0.00   0.15     0.43   0.01   0.17
  10   1    -0.42  -0.15   0.25    -0.09   0.14  -0.07    -0.10   0.16  -0.08
  11   1     0.00   0.22   0.24    -0.01  -0.14   0.40    -0.01  -0.15   0.44
  12   6     0.12   0.04  -0.08     0.07  -0.10   0.06    -0.08   0.11  -0.06
  13   1     0.00  -0.32  -0.07     0.01   0.28  -0.33    -0.01  -0.31   0.35
  14   1    -0.42  -0.15   0.26     0.09   0.01   0.15    -0.10  -0.01  -0.17
  15   1    -0.09   0.29   0.13    -0.40   0.13  -0.07     0.43  -0.15   0.07
                     28                     29                     30
                        a                      a                      a 
 Frequencies --  1498.4078              1504.1383              2817.3219
 Red. masses --     1.8702                 1.8029                 1.9481
 Frc consts  --     0.0000                 0.0000                 0.0000
 IR Inten    --     0.0846                 0.1631                 0.5292
 Raman Activ --     0.0000                 0.0000                 0.0000
 Depolar     --     0.0000                 0.0000                 0.0000
 Atom AN      X      Y      Z        X      Y      Z        X      Y      Z
   1   6     0.11  -0.08   0.13     0.10  -0.07   0.13     0.09   0.03  -0.05
   2   1    -0.42   0.04  -0.14    -0.45   0.02  -0.17    -0.08  -0.12   0.22
   3   1     0.01   0.19  -0.40     0.01   0.18  -0.44    -0.25  -0.00  -0.02
   4   8     0.00   0.03   0.02     0.04  -0.03   0.05     0.01   0.00  -0.01
   5   6    -0.11   0.07  -0.13     0.10  -0.08   0.12     0.22   0.08  -0.14
   6   1    -0.00  -0.25   0.36     0.00   0.30  -0.38    -0.63   0.03  -0.02
   7   1     0.41  -0.10   0.10    -0.45   0.14  -0.10    -0.18  -0.31   0.51
   8   6     0.03   0.02   0.06    -0.00   0.01   0.01    -0.00  -0.00   0.00
   9   1    -0.17  -0.02  -0.07    -0.00  -0.01  -0.01     0.00   0.01  -0.01
  10   1     0.05  -0.08   0.04     0.01  -0.01   0.01    -0.00  -0.00   0.00
  11   1     0.01   0.04  -0.18     0.00  -0.01  -0.01     0.01  -0.00   0.00
  12   6    -0.03   0.06  -0.01    -0.00  -0.01  -0.01    -0.00  -0.00   0.00
  13   1    -0.01  -0.14   0.12     0.00   0.02   0.00     0.03  -0.00   0.00
  14   1    -0.05  -0.00  -0.09     0.01  -0.00   0.02    -0.00  -0.00   0.00
  15   1     0.17  -0.08   0.02    -0.01   0.01   0.01     0.01   0.01  -0.02
                     31                     32                     33
                        a                      a                      a 
 Frequencies --  2817.9101              2852.4877              2860.6923
 Red. masses --     1.9736                 1.4216                 1.4109
 Frc consts  --     0.0000                 0.0000                 0.0000
 IR Inten    --     0.2202                 0.1540                 0.4534
 Raman Activ --     0.0000                 0.0000                 0.0000
 Depolar     --     0.0000                 0.0000                 0.0000
 Atom AN      X      Y      Z        X      Y      Z        X      Y      Z
   1   6    -0.22  -0.08   0.14     0.08  -0.06   0.09    -0.08   0.06  -0.09
   2   1     0.19   0.29  -0.52     0.18   0.21  -0.39    -0.19  -0.22   0.40
   3   1     0.62  -0.01   0.03    -0.48  -0.02   0.01     0.50   0.03  -0.01
   4   8    -0.00  -0.00   0.00    -0.00   0.02   0.01    -0.02   0.01  -0.02
   5   6     0.09   0.03  -0.06    -0.08   0.05  -0.10    -0.08   0.05  -0.09
   6   1    -0.26   0.01  -0.01     0.50   0.00  -0.03     0.48  -0.00  -0.03
   7   1    -0.08  -0.12   0.21    -0.19  -0.24   0.40    -0.18  -0.24   0.38
   8   6     0.00   0.00  -0.00    -0.00  -0.00  -0.00     0.00   0.00   0.01
   9   1    -0.01  -0.01   0.02    -0.00  -0.01   0.01     0.01   0.01  -0.01
  10   1     0.00   0.00  -0.00     0.00   0.00   0.01    -0.00  -0.01  -0.01
  11   1    -0.02   0.00  -0.00     0.01  -0.00  -0.00    -0.02  -0.00   0.00
  12   6    -0.00  -0.00   0.00     0.00  -0.00  -0.00     0.00  -0.01   0.00
  13   1     0.01  -0.00   0.00    -0.01  -0.00   0.00    -0.02   0.00   0.00
  14   1    -0.00  -0.00   0.00    -0.00   0.01   0.00    -0.00   0.01   0.00
  15   1     0.00   0.00  -0.01     0.00   0.01  -0.01     0.01   0.01  -0.01
                     34                     35                     36
                        a                      a                      a 
 Frequencies --  3045.5535              3045.9687              3050.7611
 Red. masses --     1.5864                 1.5603                 1.9588
 Frc consts  --     0.0000                 0.0000                 0.0000
 IR Inten    --     0.2138                 0.1144                 0.0161
 Raman Activ --     0.0000                 0.0000                 0.0000
 Depolar     --     0.0000                 0.0000                 0.0000
 Atom AN      X      Y      Z        X      Y      Z        X      Y      Z
   1   6     0.00   0.00   0.00    -0.00  -0.00  -0.01     0.01   0.00  -0.01
   2   1     0.00   0.00  -0.00    -0.00  -0.00   0.00    -0.01  -0.01   0.01
   3   1    -0.00  -0.00  -0.00     0.01   0.00   0.00    -0.02  -0.00   0.00
   4   8     0.00  -0.00   0.00     0.00  -0.00   0.00     0.00  -0.00  -0.00
   5   6    -0.00   0.01  -0.00    -0.00   0.00  -0.00    -0.01  -0.00   0.01
   6   1     0.01  -0.00  -0.00     0.00  -0.00  -0.00     0.02  -0.00  -0.00
   7   1    -0.00  -0.00   0.00    -0.00  -0.00   0.00     0.01   0.01  -0.01
   8   6     0.02   0.06   0.07    -0.04  -0.13  -0.15     0.16   0.06  -0.09
   9   1    -0.01  -0.01   0.04     0.04   0.04  -0.14    -0.13  -0.19   0.37
  10   1    -0.12  -0.19  -0.30     0.27   0.44   0.70     0.02   0.00  -0.02
  11   1     0.05   0.01   0.01    -0.15  -0.02  -0.02    -0.46  -0.01  -0.02
  12   6    -0.05   0.20   0.04    -0.02   0.08   0.02    -0.18  -0.06   0.11
  13   1    -0.13   0.03   0.00    -0.07   0.01   0.00     0.51  -0.03   0.00
  14   1     0.27  -0.83  -0.03     0.12  -0.35  -0.01    -0.02  -0.01   0.02
  15   1     0.03   0.09  -0.10     0.02   0.05  -0.05     0.15   0.26  -0.40
                     37                     38                     39
                        a                      a                      a 
 Frequencies --  3051.2719              3054.0414              3055.2227
 Red. masses --     1.9582                 1.6189                 1.6464
 Frc consts  --     0.0000                 0.0000                 0.0000
 IR Inten    --     0.2666                 0.0329                 0.2344
 Raman Activ --     0.0000                 0.0000                 0.0000
 Depolar     --     0.0000                 0.0000                 0.0000
 Atom AN      X      Y      Z        X      Y      Z        X      Y      Z
   1   6     0.01   0.00  -0.01    -0.00   0.00  -0.01    -0.01   0.00  -0.01
   2   1    -0.01  -0.01   0.02    -0.01  -0.01   0.01    -0.01  -0.01   0.02
   3   1    -0.02  -0.00  -0.00     0.01   0.00  -0.00     0.02   0.00  -0.00
   4   8    -0.00  -0.00   0.00    -0.00   0.00   0.00     0.00  -0.00   0.00
   5   6     0.01   0.00  -0.01     0.01  -0.00   0.01    -0.01   0.00  -0.01
   6   1    -0.02   0.00   0.00    -0.01  -0.00   0.00     0.02  -0.00  -0.00
   7   1    -0.01  -0.01   0.01     0.01   0.01  -0.01    -0.01  -0.01   0.01
   8   6     0.18   0.06  -0.11    -0.09   0.03  -0.13    -0.09   0.03  -0.14
   9   1    -0.15  -0.22   0.42    -0.18  -0.21   0.39    -0.18  -0.22   0.40
  10   1     0.02   0.00  -0.02     0.03   0.07   0.09     0.04   0.09   0.11
  11   1    -0.51  -0.01  -0.03     0.45   0.02  -0.01     0.48   0.02  -0.01
  12   6     0.16   0.06  -0.10     0.10  -0.10   0.10    -0.09   0.10  -0.09
  13   1    -0.45   0.02  -0.00    -0.49   0.00   0.02     0.46  -0.00  -0.02
  14   1     0.02   0.01  -0.01    -0.03   0.11   0.02     0.04  -0.13  -0.02
  15   1    -0.13  -0.23   0.36     0.18   0.24  -0.39    -0.17  -0.22   0.37
