 Entering Gaussian System
 *********************************************
 Gaussian 98:
 frequency output generated by the xtb code
 *********************************************
                         Standard orientation:
 --------------------------------------------------------------------
  Center     Atomic     Atomic              Coordinates (Angstroms)
  Number     Number      Type              X           Y           Z
 --------------------------------------------------------------------
    1          6             0       -6.175430    1.110103   -0.010872
    2          1             0       -5.824067    0.080889   -0.035389
    3          1             0       -5.815563    1.617067   -0.903224
    4          1             0       -7.262895    1.100156   -0.036569
    5          6             0       -5.677338    1.814697    1.244993
    6          1             0       -6.022989    2.851053    1.240665
    7          1             0       -4.584980    1.831257    1.242470
    8          6             0       -6.167445    1.125875    2.516618
    9          1             0       -5.822191    0.089592    2.521263
   10          1             0       -7.259614    1.109590    2.519753
   11          6             0       -5.670161    1.828544    3.777483
   12          1             0       -6.014907    2.865603    3.772746
   13          1             0       -4.577421    1.845142    3.774487
   14          6             0       -6.161859    1.138075    5.045391
   15          1             0       -5.816527    0.103338    5.068382
   16          1             0       -7.252630    1.122957    5.066721
   17          6             0       -5.666185    1.838258    6.306030
   18          1             0       -6.018205    2.880774    6.314566
   19          1             0       -4.565914    1.849634    6.316258
   20          8             0       -6.162230    1.141440    7.429290
   21          1             0       -5.855384    1.574962    8.231808
 --------------------------------------------------------------------
     1 basis functions        1 primitive gaussians
     1 alpha electrons        1 beta electrons
 
 Harmonic frequencies (cm**-1), IR intensities (KM/Mole),
 Raman scattering activities (A**4/amu), Raman depolarization ratios,
 reduced masses (AMU), force constants (mDyne/A) and normal coordinates:
                      1                      2                      3
                        a                      a                      a 
 Frequencies --    56.8765                73.2198               124.1563
 Red. masses --    99.0000                99.0000                99.0000
 Frc consts  --    99.0000                99.0000                99.0000
 IR Inten    --    99.0000                99.0000                99.0000
 Raman Activ --     0.0000                 0.0000                 0.0000
 Depolar     --     0.0000                 0.0000                 0.0000
 Atom AN      X      Y      Z        X      Y      Z        X      Y      Z
   1   6     0.31  -0.22   0.00     0.20  -0.14   0.00    -0.11   0.08  -0.00
   2   1     0.07  -0.08   0.08     0.26   0.03   0.01     0.05   0.05  -0.08
   3   1     0.17  -0.12   0.00    -0.03   0.02  -0.00    -0.14   0.10  -0.00
   4   1     0.09  -0.04  -0.08     0.06  -0.25  -0.01    -0.03  -0.06   0.08
   5   6     0.08  -0.06  -0.00    -0.30   0.21  -0.00    -0.01   0.01   0.00
   6   1     0.05  -0.01  -0.07    -0.26   0.00  -0.02    -0.07  -0.02   0.06
   7   1     0.02  -0.05   0.07    -0.09   0.24   0.02    -0.00   0.07  -0.06
   8   6    -0.28   0.20  -0.00     0.01  -0.01   0.00     0.34  -0.24   0.00
   9   1    -0.15   0.04   0.04     0.08   0.02  -0.03     0.20  -0.04  -0.02
  10   1    -0.08   0.13  -0.04     0.00  -0.08   0.03     0.10  -0.17   0.02
  11   6    -0.28   0.20  -0.00    -0.01   0.01   0.00     0.17  -0.12   0.00
  12   1    -0.07   0.06  -0.00     0.01   0.01  -0.01     0.13  -0.01  -0.09
  13   1    -0.08   0.04   0.00    -0.00  -0.01   0.01     0.05  -0.12   0.09
  14   6    -0.30   0.21  -0.00    -0.08   0.06  -0.00    -0.42   0.29  -0.00
  15   1    -0.14   0.04  -0.04    -0.14  -0.02  -0.05    -0.28   0.03   0.05
  16   1    -0.09   0.12   0.04    -0.02   0.14   0.05    -0.12   0.26  -0.05
  17   6     0.03  -0.02   0.00     0.36  -0.25   0.00    -0.16   0.12  -0.00
  18   1     0.01  -0.01   0.08     0.32  -0.00  -0.02    -0.06   0.03   0.08
  19   1     0.01  -0.01  -0.08     0.10  -0.30   0.02    -0.05   0.05  -0.08
  20   8     0.38  -0.27  -0.00    -0.23   0.17  -0.00     0.20  -0.14   0.00
  21   1     0.15  -0.11   0.00     0.03  -0.02   0.00     0.10  -0.07   0.00
                      4                      5                      6
                        a                      a                      a 
 Frequencies --   133.2612               103.6321               233.4044
 Red. masses --    99.0000                99.0000                99.0000
 Frc consts  --    99.0000                99.0000                99.0000
 IR Inten    --    99.0000                99.0000                99.0000
 Raman Activ --     0.0000                 0.0000                 0.0000
 Depolar     --     0.0000                 0.0000                 0.0000
 Atom AN      X      Y      Z        X      Y      Z        X      Y      Z
   1   6    -0.15   0.11  -0.00    -0.24  -0.33   0.15     0.04  -0.03   0.00
   2   1    -0.17  -0.01  -0.03    -0.07  -0.10   0.10    -0.37  -0.14   0.30
   3   1    -0.00   0.00   0.00    -0.12  -0.17  -0.02     0.45  -0.32   0.00
   4   1    -0.05   0.16   0.02    -0.07  -0.10   0.10     0.01   0.39  -0.30
   5   6     0.22  -0.16   0.00    -0.01  -0.01  -0.12    -0.22   0.16  -0.00
   6   1     0.13  -0.02   0.05    -0.00  -0.00  -0.09    -0.16   0.01   0.00
   7   1     0.06  -0.11  -0.05    -0.00  -0.00  -0.09    -0.06   0.15  -0.00
   8   6     0.26  -0.18   0.00     0.17   0.23   0.07     0.11  -0.08   0.00
   9   1     0.22  -0.00   0.07     0.05   0.07   0.05     0.13   0.01  -0.04
  10   1     0.08  -0.21  -0.07     0.05   0.06   0.05     0.03  -0.12   0.04
  11   6    -0.39   0.28  -0.00     0.23   0.33  -0.00     0.08  -0.06  -0.00
  12   1    -0.32   0.01  -0.04     0.06   0.09  -0.00     0.04  -0.01  -0.01
  13   1    -0.12   0.29   0.04     0.07   0.09  -0.00     0.02  -0.03   0.01
  14   6    -0.07   0.05   0.00     0.17   0.23  -0.08    -0.02   0.01   0.00
  15   1    -0.01   0.02  -0.08     0.05   0.07  -0.05    -0.03  -0.00   0.01
  16   1    -0.02   0.00   0.08     0.05   0.06  -0.05    -0.01   0.03  -0.01
  17   6     0.20  -0.14   0.00    -0.01  -0.02   0.12    -0.01   0.01   0.00
  18   1     0.17  -0.00   0.00    -0.01  -0.01   0.09    -0.01   0.00   0.00
  19   1     0.06  -0.16  -0.00    -0.00  -0.01   0.09    -0.00   0.00  -0.00
  20   8    -0.08   0.06   0.00    -0.26  -0.36  -0.17     0.01  -0.01  -0.00
  21   1     0.05  -0.04   0.00    -0.11  -0.15   0.01     0.00  -0.00   0.00
                      7                      8                      9
                        a                      a                      a 
 Frequencies --   290.3185               253.6717               306.2842
 Red. masses --    99.0000                99.0000                99.0000
 Frc consts  --    99.0000                99.0000                99.0000
 IR Inten    --    99.0000                99.0000                99.0000
 Raman Activ --     0.0000                 0.0000                 0.0000
 Depolar     --     0.0000                 0.0000                 0.0000
 Atom AN      X      Y      Z        X      Y      Z        X      Y      Z
   1   6     0.00  -0.00   0.00    -0.12  -0.17   0.23     0.03   0.05   0.45
   2   1     0.00  -0.00   0.00    -0.04  -0.05   0.16     0.01   0.01   0.15
   3   1     0.00  -0.00   0.00    -0.11  -0.16  -0.02    -0.01  -0.01   0.11
   4   1     0.00  -0.00   0.00    -0.04  -0.05   0.16     0.01   0.01   0.15
   5   6    -0.00   0.00   0.00     0.18   0.25  -0.13     0.03   0.05   0.39
   6   1    -0.00   0.00  -0.00     0.05   0.07  -0.08     0.01   0.01   0.13
   7   1    -0.00   0.00   0.00     0.05   0.07  -0.08     0.01   0.01   0.13
   8   6    -0.00   0.00  -0.00     0.20   0.29  -0.10    -0.07  -0.10   0.18
   9   1    -0.01  -0.00  -0.01     0.06   0.08  -0.06    -0.02  -0.03   0.05
  10   1    -0.00   0.01   0.00     0.06   0.08  -0.06    -0.02  -0.03   0.05
  11   6     0.03  -0.02   0.00    -0.01  -0.02   0.12    -0.02  -0.02  -0.01
  12   1     0.00  -0.01   0.01    -0.00  -0.00   0.10    -0.01  -0.01  -0.01
  13   1     0.01  -0.00  -0.01    -0.00  -0.00   0.10    -0.01  -0.01  -0.01
  14   6     0.07  -0.05  -0.00    -0.23  -0.32  -0.10    -0.03  -0.04  -0.15
  15   1     0.07   0.00   0.01    -0.06  -0.09  -0.06    -0.01  -0.01  -0.03
  16   1     0.02  -0.07  -0.01    -0.07  -0.09  -0.06    -0.01  -0.01  -0.03
  17   6    -0.09   0.07  -0.00    -0.15  -0.22  -0.19     0.05   0.08  -0.34
  18   1    -0.04   0.02  -0.01    -0.04  -0.06  -0.12     0.02   0.02  -0.10
  19   1    -0.03   0.03   0.01    -0.04  -0.06  -0.12     0.02   0.02  -0.10
  20   8    -0.20   0.14  -0.00     0.15   0.20   0.20     0.00   0.00  -0.55
  21   1     0.78  -0.55   0.00     0.10   0.15  -0.03    -0.03  -0.03  -0.11
                     10                     11                     12
                        a                      a                      a 
 Frequencies --   424.8568               487.5345               770.5963
 Red. masses --    99.0000                99.0000                99.0000
 Frc consts  --    99.0000                99.0000                99.0000
 IR Inten    --    99.0000                99.0000                99.0000
 Raman Activ --     0.0000                 0.0000                 0.0000
 Depolar     --     0.0000                 0.0000                 0.0000
 Atom AN      X      Y      Z        X      Y      Z        X      Y      Z
   1   6    -0.04  -0.05   0.17    -0.03  -0.04  -0.28    -0.01   0.00  -0.00
   2   1    -0.02  -0.02   0.15    -0.00  -0.01  -0.13     0.08   0.03   0.07
   3   1    -0.09  -0.13  -0.05     0.03   0.04  -0.04     0.02  -0.02  -0.00
   4   1    -0.01  -0.02   0.15    -0.01  -0.01  -0.13     0.00  -0.08  -0.07
   5   6     0.20   0.28  -0.13    -0.06  -0.08  -0.14    -0.08   0.06  -0.00
   6   1     0.05   0.08  -0.04    -0.01  -0.02  -0.08     0.26   0.10  -0.05
   7   1     0.06   0.07  -0.04    -0.02  -0.02  -0.08    -0.01  -0.28   0.05
   8   6    -0.03  -0.04  -0.34     0.15   0.21   0.19    -0.12   0.08  -0.00
   9   1    -0.01  -0.01  -0.18     0.04   0.06   0.07     0.37   0.15   0.01
  10   1    -0.01  -0.01  -0.18     0.04   0.05   0.07    -0.02  -0.40  -0.01
  11   6    -0.24  -0.34  -0.07    -0.04  -0.05   0.45    -0.11   0.08  -0.00
  12   1    -0.06  -0.09  -0.03    -0.01  -0.01   0.20     0.35   0.15   0.02
  13   1    -0.07  -0.09  -0.03    -0.01  -0.01   0.20    -0.02  -0.38  -0.02
  14   6     0.04   0.06   0.28    -0.14  -0.19   0.29    -0.07   0.05  -0.00
  15   1     0.01   0.02   0.17    -0.03  -0.05   0.14     0.23   0.09  -0.06
  16   1     0.01   0.01   0.17    -0.04  -0.05   0.14    -0.01  -0.25   0.06
  17   6     0.18   0.25   0.18     0.11   0.15  -0.09    -0.01   0.01   0.00
  18   1     0.05   0.07   0.09     0.03   0.04  -0.05     0.08   0.03   0.04
  19   1     0.05   0.07   0.09     0.03   0.04  -0.05     0.00  -0.08  -0.04
  20   8    -0.06  -0.09  -0.15     0.01   0.01  -0.42     0.01  -0.01  -0.00
  21   1    -0.08  -0.11   0.04    -0.05  -0.07  -0.04    -0.01   0.00  -0.00
                     13                     14                     15
                        a                      a                      a 
 Frequencies --   786.9944               836.8801              1163.2353
 Red. masses --    99.0000                99.0000                99.0000
 Frc consts  --    99.0000                99.0000                99.0000
 IR Inten    --    99.0000                99.0000                99.0000
 Raman Activ --     0.0000                 0.0000                 0.0000
 Depolar     --     0.0000                 0.0000                 0.0000
 Atom AN      X      Y      Z        X      Y      Z        X      Y      Z
   1   6     0.02  -0.02   0.00    -0.06   0.05  -0.00    -0.04   0.03  -0.00
   2   1    -0.13  -0.05  -0.13     0.17   0.07   0.19     0.03   0.02   0.04
   3   1    -0.05   0.04  -0.00     0.09  -0.06  -0.00     0.02  -0.01  -0.00
   4   1    -0.00   0.14   0.13    -0.01  -0.18  -0.19    -0.01  -0.03  -0.04
   5   6     0.14  -0.10   0.00    -0.14   0.10  -0.00     0.07  -0.05   0.00
   6   1    -0.32  -0.14   0.01     0.22   0.11   0.10    -0.05  -0.03   0.04
   7   1     0.03   0.35  -0.01    -0.03  -0.25  -0.10     0.02   0.05  -0.04
   8   6     0.08  -0.05   0.00     0.11  -0.08   0.00    -0.10   0.07  -0.00
   9   1    -0.16  -0.07   0.10    -0.16  -0.08  -0.13     0.07   0.05   0.07
  10   1     0.02   0.18  -0.10     0.02   0.18   0.13    -0.02  -0.08  -0.07
  11   6    -0.08   0.06  -0.00     0.14  -0.10   0.00     0.16  -0.12   0.00
  12   1     0.18   0.08  -0.10    -0.20  -0.11  -0.11    -0.11  -0.08   0.13
  13   1    -0.02  -0.20   0.10     0.03   0.23   0.11     0.04   0.13  -0.13
  14   6    -0.15   0.11  -0.00    -0.12   0.08  -0.00    -0.25   0.18  -0.00
  15   1     0.35   0.15  -0.02     0.20   0.10   0.15     0.16   0.12   0.17
  16   1    -0.03  -0.38   0.02    -0.03  -0.23  -0.15    -0.06  -0.19  -0.17
  17   6    -0.06   0.04   0.00    -0.13   0.09  -0.00     0.34  -0.24   0.00
  18   1     0.19   0.07   0.10     0.26   0.12   0.14    -0.28  -0.18   0.28
  19   1    -0.01  -0.20  -0.10    -0.03  -0.28  -0.14     0.08   0.33  -0.28
  20   8     0.03  -0.02  -0.00     0.05  -0.04  -0.00    -0.13   0.09  -0.00
  21   1    -0.01   0.01  -0.00    -0.01   0.01  -0.00    -0.01   0.01   0.00
                     16                     17                     18
                        a                      a                      a 
 Frequencies --   913.7482               995.1046               939.5539
 Red. masses --    99.0000                99.0000                99.0000
 Frc consts  --    99.0000                99.0000                99.0000
 IR Inten    --    99.0000                99.0000                99.0000
 Raman Activ --     0.0000                 0.0000                 0.0000
 Depolar     --     0.0000                 0.0000                 0.0000
 Atom AN      X      Y      Z        X      Y      Z        X      Y      Z
   1   6    -0.11   0.08   0.00     0.12  -0.08   0.00     0.05   0.08  -0.36
   2   1     0.17   0.08   0.22    -0.13  -0.07  -0.18    -0.03  -0.01   0.22
   3   1     0.10  -0.07   0.00    -0.07   0.05   0.00    -0.24  -0.34  -0.40
   4   1    -0.02  -0.19  -0.22     0.02   0.15   0.18     0.00  -0.03   0.22
   5   6    -0.03   0.02   0.00    -0.11   0.08  -0.00     0.16   0.23  -0.09
   6   1     0.04   0.02   0.24     0.10   0.06  -0.26     0.04   0.06   0.11
   7   1    -0.01  -0.04  -0.24    -0.02  -0.11   0.26     0.04   0.06   0.11
   8   6     0.19  -0.14   0.00     0.02  -0.01  -0.00    -0.21  -0.30   0.22
   9   1    -0.21  -0.12   0.08    -0.02  -0.01  -0.35    -0.05  -0.08   0.11
  10   1     0.04   0.24  -0.08     0.00   0.02   0.35    -0.06  -0.08   0.11
  11   6    -0.14   0.10  -0.00     0.08  -0.06   0.00     0.06   0.08   0.16
  12   1     0.15   0.09  -0.17    -0.07  -0.05  -0.30     0.01   0.02   0.01
  13   1    -0.03  -0.17   0.17     0.02   0.09   0.30     0.01   0.02   0.01
  14   6    -0.04   0.03  -0.00    -0.13   0.09  -0.00     0.05   0.07   0.05
  15   1     0.03   0.02  -0.27     0.11   0.07  -0.22     0.01   0.02  -0.02
  16   1    -0.01  -0.03   0.27    -0.03  -0.13   0.22     0.01   0.02  -0.02
  17   6     0.17  -0.12   0.00     0.12  -0.09   0.00    -0.07  -0.09  -0.04
  18   1    -0.22  -0.12  -0.11    -0.13  -0.07  -0.05    -0.02  -0.02  -0.02
  19   1     0.03   0.25   0.11     0.03   0.15   0.05    -0.02  -0.02  -0.02
  20   8    -0.05   0.03   0.00    -0.03   0.02   0.00     0.01   0.02  -0.05
  21   1     0.01  -0.00   0.00     0.00  -0.00   0.00     0.03   0.05  -0.04
                     19                     20                     21
                        a                      a                      a 
 Frequencies --  1208.6011              1492.7825              1502.8057
 Red. masses --    99.0000                99.0000                99.0000
 Frc consts  --    99.0000                99.0000                99.0000
 IR Inten    --    99.0000                99.0000                99.0000
 Raman Activ --     0.0000                 0.0000                 0.0000
 Depolar     --     0.0000                 0.0000                 0.0000
 Atom AN      X      Y      Z        X      Y      Z        X      Y      Z
   1   6     0.21  -0.15  -0.00    -0.00  -0.00  -0.00     0.01   0.01   0.01
   2   1    -0.15  -0.10  -0.19     0.00   0.00   0.01    -0.04  -0.01  -0.01
   3   1    -0.09   0.06  -0.00     0.00   0.01   0.00    -0.01  -0.00  -0.00
   4   1     0.04   0.17   0.19     0.00   0.00   0.01     0.00  -0.04  -0.01
   5   6    -0.32   0.22   0.00     0.02   0.03  -0.01    -0.09  -0.13   0.00
   6   1     0.19   0.14   0.04    -0.09  -0.03   0.01     0.38   0.13  -0.01
   7   1    -0.07  -0.22  -0.04     0.00  -0.09   0.01    -0.01   0.40  -0.01
   8   6     0.27  -0.19   0.00    -0.05  -0.08   0.00     0.03   0.05  -0.00
   9   1    -0.16  -0.12   0.06     0.21   0.06  -0.01    -0.18  -0.06   0.00
  10   1     0.06   0.19  -0.06    -0.01   0.22  -0.01     0.00  -0.19   0.00
  11   6    -0.21   0.14   0.00    -0.03  -0.05   0.03    -0.10  -0.15   0.00
  12   1     0.12   0.09   0.12     0.14   0.05  -0.02     0.43   0.14  -0.00
  13   1    -0.05  -0.15  -0.12    -0.00   0.15  -0.02    -0.01   0.45  -0.00
  14   6     0.07  -0.05   0.00     0.13   0.18  -0.02     0.03   0.04  -0.01
  15   1    -0.04  -0.03   0.20    -0.50  -0.16   0.01    -0.14  -0.05   0.01
  16   1     0.01   0.05  -0.21     0.02  -0.52   0.01     0.00  -0.14   0.01
  17   6     0.08  -0.06  -0.00     0.08   0.11  -0.01    -0.04  -0.06  -0.01
  18   1    -0.06  -0.04   0.17    -0.30  -0.10   0.03     0.19   0.07   0.00
  19   1     0.02   0.07  -0.18     0.00  -0.32   0.03     0.00   0.20   0.00
  20   8    -0.05   0.03   0.00     0.01   0.02  -0.01    -0.01  -0.01   0.01
  21   1    -0.01  -0.00   0.01    -0.00  -0.00   0.01    -0.00  -0.00   0.00
                     22                     23                     24
                        a                      a                      a 
 Frequencies --  1494.2480              1498.9029              1497.3038
 Red. masses --    99.0000                99.0000                99.0000
 Frc consts  --    99.0000                99.0000                99.0000
 IR Inten    --    99.0000                99.0000                99.0000
 Raman Activ --     0.0000                 0.0000                 0.0000
 Depolar     --     0.0000                 0.0000                 0.0000
 Atom AN      X      Y      Z        X      Y      Z        X      Y      Z
   1   6     0.01   0.02  -0.00     0.02   0.03  -0.01    -0.03  -0.04   0.00
   2   1    -0.07  -0.02   0.01    -0.11  -0.04   0.03     0.14   0.05  -0.00
   3   1     0.02   0.02   0.02     0.03   0.04   0.04    -0.02  -0.03  -0.03
   4   1     0.00  -0.08   0.01     0.00  -0.11   0.03    -0.00   0.15  -0.01
   5   6    -0.03  -0.05  -0.01    -0.02  -0.02  -0.04     0.12   0.16   0.00
   6   1     0.13   0.04   0.01     0.06   0.02   0.02    -0.46  -0.15   0.00
   7   1    -0.00   0.14   0.01    -0.00   0.06   0.02     0.01  -0.49   0.00
   8   6    -0.07  -0.10  -0.02    -0.13  -0.19   0.02     0.01   0.01   0.03
   9   1     0.28   0.09   0.01     0.50   0.16  -0.01    -0.00  -0.00  -0.02
  10   1    -0.01   0.29   0.01    -0.01   0.52  -0.01     0.00  -0.00  -0.02
  11   6     0.07   0.10   0.02    -0.07  -0.10   0.01    -0.07  -0.10  -0.00
  12   1    -0.27  -0.09  -0.02     0.25   0.08  -0.01     0.27   0.09  -0.01
  13   1     0.01  -0.29  -0.02    -0.01   0.26  -0.01    -0.01   0.28  -0.01
  14   6     0.06   0.09   0.02    -0.08  -0.11  -0.02     0.00   0.00  -0.00
  15   1    -0.25  -0.08  -0.02     0.29   0.09   0.01    -0.04  -0.02   0.00
  16   1     0.01  -0.26  -0.02    -0.01   0.30   0.01    -0.00  -0.05   0.00
  17   6    -0.10  -0.14  -0.04     0.01   0.01   0.02    -0.08  -0.11  -0.01
  18   1     0.42   0.15   0.01    -0.03  -0.01  -0.01     0.32   0.11  -0.00
  19   1    -0.00   0.45   0.01    -0.00  -0.04  -0.01    -0.00   0.34  -0.00
  20   8    -0.01  -0.02   0.02     0.00   0.00  -0.00    -0.01  -0.01   0.01
  21   1    -0.00  -0.01   0.00     0.00   0.00  -0.00    -0.00  -0.00   0.00
                     25                     26                     27
                        a                      a                      a 
 Frequencies --  1023.5161              1052.6610              1416.2416
 Red. masses --    99.0000                99.0000                99.0000
 Frc consts  --    99.0000                99.0000                99.0000
 IR Inten    --    99.0000                99.0000                99.0000
 Raman Activ --     0.0000                 0.0000                 0.0000
 Depolar     --     0.0000                 0.0000                 0.0000
 Atom AN      X      Y      Z        X      Y      Z        X      Y      Z
   1   6     0.05   0.07  -0.06     0.12   0.18   0.22     0.13   0.18   0.37
   2   1    -0.00   0.01   0.09     0.03   0.04   0.13    -0.22  -0.05  -0.46
   3   1    -0.07  -0.10  -0.11    -0.00  -0.01   0.02    -0.25  -0.35  -0.27
   4   1     0.01  -0.00   0.09     0.03   0.04   0.13     0.02  -0.22  -0.46
   5   6    -0.03  -0.05   0.02    -0.14  -0.20  -0.21     0.00   0.00  -0.08
   6   1    -0.01  -0.01   0.08    -0.04  -0.06  -0.00    -0.05  -0.02   0.08
   7   1    -0.01  -0.01   0.08    -0.04  -0.06  -0.00    -0.00  -0.05   0.08
   8   6     0.01   0.02   0.03    -0.11  -0.16  -0.35     0.01   0.02   0.00
   9   1     0.01   0.01   0.09    -0.03  -0.04  -0.04     0.00   0.01   0.01
  10   1     0.00   0.01   0.09    -0.03  -0.04  -0.04     0.00   0.01   0.01
  11   6     0.07   0.10  -0.18     0.26   0.37   0.00    -0.01  -0.01   0.03
  12   1     0.01   0.02   0.02     0.07   0.10   0.01     0.00  -0.00  -0.03
  13   1     0.02   0.02   0.02     0.07   0.10   0.01    -0.00  -0.00  -0.03
  14   6    -0.28  -0.40  -0.28    -0.12  -0.17   0.30    -0.00  -0.00  -0.01
  15   1    -0.07  -0.10  -0.09    -0.03  -0.05   0.05     0.00   0.00   0.01
  16   1    -0.07  -0.10  -0.09    -0.03  -0.05   0.05     0.00   0.00   0.01
  17   6     0.28   0.39   0.15    -0.12  -0.16   0.25    -0.00  -0.00   0.00
  18   1     0.06   0.09   0.02    -0.02  -0.03  -0.01     0.00  -0.00  -0.00
  19   1     0.07   0.09   0.02    -0.02  -0.03  -0.01    -0.00   0.00  -0.00
  20   8    -0.01  -0.02   0.14     0.11   0.16  -0.25    -0.00  -0.00   0.00
  21   1    -0.21  -0.29   0.26    -0.01  -0.02  -0.02     0.00   0.00  -0.00
                     28                     29                     30
                        a                      a                      a 
 Frequencies --  1129.4919              1088.1138              1248.2606
 Red. masses --    99.0000                99.0000                99.0000
 Frc consts  --    99.0000                99.0000                99.0000
 IR Inten    --    99.0000                99.0000                99.0000
 Raman Activ --     0.0000                 0.0000                 0.0000
 Depolar     --     0.0000                 0.0000                 0.0000
 Atom AN      X      Y      Z        X      Y      Z        X      Y      Z
   1   6     0.10   0.15  -0.13    -0.15  -0.21  -0.17     0.19  -0.13   0.00
   2   1    -0.02   0.01   0.19    -0.03  -0.05  -0.16    -0.12  -0.08  -0.15
   3   1    -0.12  -0.17  -0.20     0.03   0.04   0.03    -0.07   0.05  -0.00
   4   1     0.02  -0.01   0.19    -0.04  -0.04  -0.16     0.04   0.14   0.15
   5   6    -0.24  -0.33   0.20     0.13   0.19   0.27    -0.15   0.11  -0.00
   6   1    -0.06  -0.08   0.23     0.03   0.05   0.07     0.08   0.07   0.31
   7   1    -0.06  -0.08   0.23     0.03   0.05   0.07    -0.04  -0.10  -0.31
   8   6     0.23   0.32  -0.23    -0.02  -0.02  -0.00    -0.06   0.05  -0.00
   9   1     0.06   0.08  -0.02    -0.00  -0.00  -0.11     0.04   0.03   0.19
  10   1     0.06   0.08  -0.02    -0.00  -0.00  -0.11    -0.02  -0.04  -0.19
  11   6    -0.14  -0.19  -0.02    -0.02  -0.03   0.07     0.23  -0.16   0.00
  12   1    -0.03  -0.05   0.14    -0.01  -0.01  -0.01    -0.13  -0.10   0.20
  13   1    -0.03  -0.04   0.14    -0.01  -0.01  -0.01     0.05   0.15  -0.20
  14   6     0.08   0.12  -0.14    -0.03  -0.04  -0.15    -0.19   0.13  -0.00
  15   1     0.02   0.03   0.01    -0.01  -0.02  -0.21     0.09   0.07  -0.26
  16   1     0.02   0.03   0.01    -0.01  -0.02  -0.21    -0.04  -0.11   0.26
  17   6    -0.05  -0.07   0.11    -0.11  -0.15   0.52    -0.04   0.03  -0.00
  18   1    -0.00  -0.01   0.11    -0.01  -0.02   0.09     0.04   0.03  -0.22
  19   1    -0.01  -0.01   0.11    -0.01  -0.01   0.09    -0.02  -0.04   0.22
  20   8     0.02   0.03  -0.07     0.19   0.26  -0.33     0.04  -0.03   0.00
  21   1     0.08   0.12  -0.11    -0.06  -0.08   0.04     0.01  -0.00  -0.00
                     31                     32                     33
                        a                      a                      a 
 Frequencies --  1112.8361              1103.5035              1207.5605
 Red. masses --    99.0000                99.0000                99.0000
 Frc consts  --    99.0000                99.0000                99.0000
 IR Inten    --    99.0000                99.0000                99.0000
 Raman Activ --     0.0000                 0.0000                 0.0000
 Depolar     --     0.0000                 0.0000                 0.0000
 Atom AN      X      Y      Z        X      Y      Z        X      Y      Z
   1   6    -0.13  -0.19  -0.19     0.05   0.08   0.16    -0.04  -0.07   0.03
   2   1    -0.04  -0.05  -0.11     0.02   0.02   0.03     0.00  -0.01  -0.07
   3   1    -0.01  -0.01  -0.02     0.03   0.04   0.06     0.04   0.05   0.06
   4   1    -0.03  -0.05  -0.11     0.01   0.03   0.03    -0.01   0.01  -0.06
   5   6     0.05   0.07   0.40    -0.04  -0.06  -0.20     0.08   0.12  -0.06
   6   1     0.01   0.02   0.24    -0.02  -0.02  -0.08     0.02   0.03   0.01
   7   1     0.01   0.01   0.24    -0.01  -0.02  -0.08     0.02   0.02   0.01
   8   6    -0.04  -0.06  -0.40    -0.14  -0.20  -0.18    -0.09  -0.13  -0.04
   9   1    -0.00  -0.01  -0.21    -0.05  -0.06  -0.13    -0.02  -0.03   0.12
  10   1    -0.01  -0.01  -0.21    -0.04  -0.07  -0.13    -0.02  -0.02   0.12
  11   6     0.18   0.26   0.13    -0.03  -0.04   0.56     0.06   0.09  -0.10
  12   1     0.05   0.07   0.09    -0.01  -0.01   0.25     0.01   0.02   0.20
  13   1     0.05   0.07   0.09    -0.01  -0.01   0.25     0.01   0.01   0.20
  14   6    -0.03  -0.04   0.15     0.11   0.16  -0.34    -0.11  -0.15  -0.24
  15   1     0.00  -0.00   0.08     0.04   0.04  -0.24    -0.03  -0.04   0.16
  16   1    -0.00   0.00   0.08     0.03   0.05  -0.24    -0.02  -0.04   0.16
  17   6     0.07   0.10  -0.28     0.08   0.11  -0.04     0.08   0.12   0.09
  18   1     0.00   0.01  -0.08     0.02   0.03   0.02     0.03   0.03   0.34
  19   1     0.01   0.01  -0.08     0.02   0.03   0.02     0.02   0.04   0.34
  20   8    -0.09  -0.13   0.16    -0.02  -0.03   0.09    -0.07  -0.10  -0.04
  21   1    -0.00  -0.00   0.02    -0.04  -0.05   0.06     0.28   0.39  -0.35
                     34                     35                     36
                        a                      a                      a 
 Frequencies --  1286.0048              1268.8363              1504.4990
 Red. masses --    99.0000                99.0000                99.0000
 Frc consts  --    99.0000                99.0000                99.0000
 IR Inten    --    99.0000                99.0000                99.0000
 Raman Activ --     0.0000                 0.0000                 0.0000
 Depolar     --     0.0000                 0.0000                 0.0000
 Atom AN      X      Y      Z        X      Y      Z        X      Y      Z
   1   6    -0.12   0.09  -0.00     0.00  -0.00  -0.00     0.17  -0.12   0.00
   2   1     0.07   0.05   0.09    -0.01  -0.00   0.00    -0.15  -0.07   0.44
   3   1     0.03  -0.02  -0.00    -0.01   0.01  -0.00    -0.58   0.41  -0.00
   4   1    -0.03  -0.08  -0.09    -0.00   0.01  -0.00     0.02   0.16  -0.44
   5   6    -0.05   0.04  -0.00    -0.08   0.05   0.00     0.04  -0.03  -0.00
   6   1     0.03   0.02  -0.47     0.04   0.03  -0.11    -0.01  -0.02  -0.02
   7   1    -0.01  -0.03   0.47    -0.02  -0.05   0.11     0.01   0.01   0.02
   8   6     0.22  -0.16   0.00    -0.03   0.02   0.00    -0.00   0.00  -0.00
   9   1    -0.11  -0.09   0.15     0.01   0.01   0.30     0.00   0.00  -0.02
  10   1     0.05   0.13  -0.15    -0.01  -0.02  -0.30     0.00   0.00   0.02
  11   6     0.05  -0.03   0.00     0.02  -0.02   0.00    -0.00   0.00   0.00
  12   1    -0.02  -0.02   0.34    -0.01  -0.01  -0.28     0.00   0.00   0.00
  13   1     0.01   0.02  -0.34     0.00   0.02   0.28    -0.00  -0.00  -0.00
  14   6    -0.12   0.09   0.00    -0.08   0.06  -0.00    -0.00  -0.00  -0.00
  15   1     0.06   0.05  -0.14     0.06   0.05   0.37     0.00   0.00   0.00
  16   1    -0.03  -0.07   0.14    -0.02  -0.07  -0.37    -0.00   0.00  -0.00
  17   6    -0.01   0.01   0.00     0.10  -0.07   0.00     0.00   0.00   0.00
  18   1     0.01   0.01  -0.09    -0.03  -0.03  -0.40    -0.00  -0.00   0.00
  19   1    -0.01  -0.01   0.09     0.02   0.04   0.40     0.00  -0.00  -0.00
  20   8     0.02  -0.01   0.00     0.04  -0.03   0.00    -0.00   0.00  -0.00
  21   1     0.00  -0.00  -0.00     0.02  -0.01  -0.00     0.00  -0.00   0.00
                     37                     38                     39
                        a                      a                      a 
 Frequencies --  1259.1960              1289.6912              1306.3877
 Red. masses --    99.0000                99.0000                99.0000
 Frc consts  --    99.0000                99.0000                99.0000
 IR Inten    --    99.0000                99.0000                99.0000
 Raman Activ --     0.0000                 0.0000                 0.0000
 Depolar     --     0.0000                 0.0000                 0.0000
 Atom AN      X      Y      Z        X      Y      Z        X      Y      Z
   1   6     0.06   0.09  -0.04     0.01  -0.01   0.00    -0.06  -0.09   0.04
   2   1    -0.02   0.01   0.06    -0.01  -0.00  -0.00     0.04   0.00  -0.03
   3   1    -0.05  -0.07  -0.09    -0.02   0.01   0.00     0.06   0.09   0.10
   4   1     0.01  -0.01   0.06    -0.00   0.01   0.00    -0.01   0.03  -0.03
   5   6    -0.08  -0.11   0.13    -0.10   0.07  -0.00     0.04   0.05  -0.24
   6   1    -0.01  -0.02  -0.15     0.05   0.04  -0.13     0.00   0.01   0.30
   7   1    -0.02  -0.02  -0.15    -0.02  -0.06   0.13     0.01   0.01   0.30
   8   6     0.04   0.05   0.18    -0.05   0.04  -0.00     0.04   0.05  -0.19
   9   1     0.01   0.01  -0.32     0.03   0.03   0.42    -0.00   0.01   0.29
  10   1     0.01   0.01  -0.32    -0.01  -0.04  -0.42     0.01  -0.00   0.29
  11   6     0.04   0.05   0.18     0.14  -0.10   0.00    -0.06  -0.09   0.03
  12   1     0.00   0.01  -0.33    -0.06  -0.06  -0.29     0.01  -0.01  -0.08
  13   1     0.01   0.00  -0.33     0.04   0.08   0.29    -0.01   0.00  -0.08
  14   6    -0.11  -0.16   0.12     0.15  -0.10   0.00    -0.01  -0.02   0.30
  15   1    -0.02  -0.04  -0.21    -0.07  -0.07  -0.21    -0.00  -0.01  -0.37
  16   1    -0.03  -0.03  -0.21     0.04   0.09   0.21    -0.01  -0.01  -0.37
  17   6     0.12   0.17   0.03    -0.08   0.06  -0.00     0.09   0.12   0.06
  18   1     0.02   0.04   0.10     0.02   0.02   0.33     0.00   0.02  -0.11
  19   1     0.03   0.03   0.10    -0.01  -0.03  -0.33     0.02   0.01  -0.11
  20   8    -0.09  -0.13   0.00    -0.04   0.03  -0.00    -0.08  -0.11   0.01
  21   1     0.18   0.26  -0.23    -0.01   0.01  -0.00     0.11   0.15  -0.14
                     40                     41                     42
                        a                      a                      a 
 Frequencies --  1507.6030              1353.3162              1377.2448
 Red. masses --    99.0000                99.0000                99.0000
 Frc consts  --    99.0000                99.0000                99.0000
 IR Inten    --    99.0000                99.0000                99.0000
 Raman Activ --     0.0000                 0.0000                 0.0000
 Depolar     --     0.0000                 0.0000                 0.0000
 Atom AN      X      Y      Z        X      Y      Z        X      Y      Z
   1   6     0.10   0.14  -0.11     0.05   0.07  -0.03     0.02   0.03  -0.05
   2   1    -0.57  -0.19   0.14    -0.06  -0.01  -0.02    -0.04  -0.01   0.01
   3   1     0.15   0.22   0.17    -0.06  -0.09  -0.10    -0.02  -0.03  -0.04
   4   1     0.01  -0.60   0.14     0.01  -0.06  -0.02     0.00  -0.04   0.01
   5   6     0.06   0.09  -0.05     0.01   0.01   0.34     0.02   0.03   0.31
   6   1    -0.15  -0.04   0.03    -0.01  -0.01  -0.35    -0.02  -0.00  -0.25
   7   1     0.01  -0.15   0.03    -0.00  -0.02  -0.35     0.00  -0.02  -0.25
   8   6     0.03   0.04   0.02    -0.04  -0.06  -0.07     0.00   0.00  -0.43
   9   1    -0.12  -0.04  -0.01     0.02  -0.00   0.08    -0.00   0.00   0.37
  10   1     0.00  -0.13  -0.01    -0.01   0.02   0.08     0.00  -0.00   0.37
  11   6    -0.00  -0.00  -0.01    -0.01  -0.02  -0.31    -0.02  -0.02   0.33
  12   1     0.03   0.01   0.00     0.01   0.00   0.33     0.01  -0.00  -0.28
  13   1     0.00   0.03   0.00    -0.00   0.01   0.33    -0.01   0.01  -0.28
  14   6     0.01   0.01  -0.00     0.03   0.04   0.22    -0.01  -0.02  -0.11
  15   1    -0.03  -0.01   0.00    -0.02  -0.00  -0.20     0.02   0.00   0.06
  16   1     0.00  -0.03   0.00     0.00  -0.02  -0.20    -0.00   0.02   0.06
  17   6    -0.00  -0.01  -0.00     0.05   0.06   0.12    -0.01  -0.02  -0.05
  18   1     0.02   0.01   0.00     0.00   0.02  -0.21    -0.00  -0.01   0.09
  19   1     0.00   0.02   0.00     0.01   0.01  -0.21    -0.01  -0.00   0.09
  20   8    -0.00  -0.00   0.00    -0.06  -0.08   0.01     0.02   0.03  -0.00
  21   1    -0.00  -0.00   0.00     0.07   0.09  -0.09    -0.02  -0.03   0.03
                     43                     44                     45
                        a                      a                      a 
 Frequencies --  1383.5572              2956.1715              2961.6845
 Red. masses --    99.0000                99.0000                99.0000
 Frc consts  --    99.0000                99.0000                99.0000
 IR Inten    --    99.0000                99.0000                99.0000
 Raman Activ --     0.0000                 0.0000                 0.0000
 Depolar     --     0.0000                 0.0000                 0.0000
 Atom AN      X      Y      Z        X      Y      Z        X      Y      Z
   1   6    -0.01  -0.01  -0.00     0.00  -0.00  -0.00     0.01  -0.01  -0.00
   2   1     0.01   0.00   0.01    -0.00   0.01   0.00    -0.01   0.05   0.00
   3   1     0.01   0.02   0.01     0.00  -0.00   0.00     0.00  -0.00   0.00
   4   1    -0.00   0.01   0.01    -0.01  -0.00  -0.00    -0.05  -0.00  -0.00
   5   6    -0.00  -0.00  -0.03    -0.05   0.03  -0.00    -0.19   0.14  -0.00
   6   1     0.00   0.00   0.03     0.04  -0.13   0.00     0.16  -0.52   0.00
   7   1     0.00   0.00   0.03     0.14   0.01  -0.00     0.55   0.02  -0.00
   8   6     0.00   0.00  -0.01     0.12  -0.08   0.00     0.09  -0.06   0.00
   9   1    -0.01  -0.00  -0.01    -0.10   0.33  -0.00    -0.08   0.25  -0.00
  10   1     0.00  -0.01  -0.01    -0.35  -0.02   0.00    -0.26  -0.01   0.00
  11   6     0.01   0.02   0.15    -0.19   0.14  -0.00     0.11  -0.07   0.00
  12   1    -0.01  -0.00  -0.10     0.16  -0.53   0.00    -0.08   0.27  -0.00
  13   1     0.00  -0.01  -0.10     0.56   0.02  -0.00    -0.29  -0.01   0.00
  14   6     0.01   0.01  -0.32     0.03  -0.02   0.00    -0.03   0.02  -0.00
  15   1    -0.02   0.00   0.24    -0.03   0.10  -0.00     0.02  -0.08   0.00
  16   1     0.01  -0.02   0.24    -0.10  -0.01   0.00     0.08   0.00  -0.00
  17   6     0.05   0.07   0.43     0.00  -0.00  -0.00    -0.00   0.00  -0.00
  18   1     0.02   0.03  -0.48     0.00  -0.00  -0.00     0.00   0.00   0.00
  19   1     0.02   0.03  -0.48     0.00   0.00   0.00    -0.00  -0.00  -0.00
  20   8    -0.09  -0.13   0.00     0.00  -0.00  -0.00    -0.00   0.00   0.00
  21   1     0.11   0.16  -0.15    -0.00   0.00   0.00     0.00  -0.00  -0.00
                     46                     47                     48
                        a                      a                      a 
 Frequencies --  2849.0383              2990.2592              3033.0433
 Red. masses --    99.0000                99.0000                99.0000
 Frc consts  --    99.0000                99.0000                99.0000
 IR Inten    --    99.0000                99.0000                99.0000
 Raman Activ --     0.0000                 0.0000                 0.0000
 Depolar     --     0.0000                 0.0000                 0.0000
 Atom AN      X      Y      Z        X      Y      Z        X      Y      Z
   1   6     0.00  -0.00   0.00     0.01  -0.00   0.00    -0.14  -0.20   0.15
   2   1    -0.00   0.00  -0.00    -0.01   0.02  -0.00    -0.18   0.41   0.03
   3   1     0.00  -0.00  -0.00     0.00  -0.00  -0.00     0.23   0.33  -0.58
   4   1    -0.00   0.00   0.00    -0.02  -0.00   0.00     0.45  -0.03   0.03
   5   6     0.00  -0.00   0.00    -0.02   0.01  -0.00    -0.02  -0.02   0.00
   6   1    -0.00   0.00   0.00     0.02  -0.05   0.00    -0.03   0.07  -0.00
   7   1    -0.00   0.00  -0.00     0.05   0.00  -0.00     0.08  -0.00  -0.00
   8   6     0.00  -0.00  -0.00    -0.04   0.03  -0.00    -0.01  -0.01   0.00
   9   1    -0.00   0.00  -0.00     0.04  -0.12  -0.00    -0.02   0.04  -0.00
  10   1    -0.00   0.00   0.00     0.12   0.00   0.00     0.05  -0.00  -0.00
  11   6     0.01  -0.00   0.00    -0.07   0.05  -0.00    -0.00  -0.00   0.00
  12   1    -0.00   0.01   0.00     0.06  -0.17   0.00    -0.00   0.01   0.00
  13   1    -0.01   0.00  -0.00     0.17   0.00   0.00     0.01  -0.00   0.00
  14   6     0.01  -0.00   0.00    -0.23   0.16  -0.00    -0.00  -0.00   0.00
  15   1    -0.01   0.04   0.00     0.19  -0.61   0.01    -0.00   0.01  -0.00
  16   1    -0.04  -0.00  -0.00     0.63   0.02  -0.01     0.01  -0.00  -0.00
  17   6    -0.24   0.17  -0.00    -0.02   0.01  -0.00    -0.00  -0.00  -0.00
  18   1     0.20  -0.64  -0.01     0.01  -0.04  -0.00    -0.00   0.00   0.00
  19   1     0.67   0.02   0.01     0.04  -0.00   0.00     0.00  -0.00   0.00
  20   8    -0.01   0.00  -0.00     0.00  -0.00  -0.00     0.00   0.00   0.00
  21   1     0.00  -0.00   0.00    -0.00   0.00   0.00    -0.00  -0.00  -0.00
                     49                     50                     51
                        a                      a                      a 
 Frequencies --  3031.3131              2975.6280              2882.7217
 Red. masses --    99.0000                99.0000                99.0000
 Frc consts  --    99.0000                99.0000                99.0000
 IR Inten    --    99.0000                99.0000                99.0000
 Raman Activ --     0.0000                 0.0000                 0.0000
 Depolar     --     0.0000                 0.0000                 0.0000
 Atom AN      X      Y      Z        X      Y      Z        X      Y      Z
   1   6     0.24  -0.17   0.00    -0.02   0.01   0.00     0.00   0.00  -0.00
   2   1    -0.20   0.64   0.00     0.02  -0.06  -0.00     0.00  -0.00   0.00
   3   1     0.04  -0.02  -0.00    -0.00   0.00  -0.00    -0.00  -0.00   0.00
   4   1    -0.67  -0.02  -0.00     0.07   0.00   0.00     0.00   0.00   0.00
   5   6     0.04  -0.03   0.00     0.13  -0.09   0.00     0.00   0.00   0.00
   6   1    -0.03   0.08  -0.00    -0.10   0.33  -0.00     0.00  -0.00  -0.00
   7   1    -0.08  -0.00   0.00    -0.37  -0.01   0.00    -0.00   0.00  -0.00
   8   6     0.01  -0.01   0.00     0.19  -0.13   0.00     0.00   0.00   0.00
   9   1    -0.01   0.03  -0.00    -0.15   0.48  -0.00     0.00  -0.00   0.00
  10   1    -0.03  -0.00   0.00    -0.50  -0.02   0.00    -0.00   0.00   0.00
  11   6     0.00  -0.00   0.00     0.07  -0.05   0.00     0.01   0.01   0.00
  12   1    -0.00   0.01   0.00    -0.06   0.18  -0.00     0.01  -0.02  -0.00
  13   1    -0.01  -0.00  -0.00    -0.20  -0.01   0.00    -0.02   0.00  -0.00
  14   6     0.00  -0.00   0.00    -0.06   0.05  -0.00     0.00   0.00  -0.00
  15   1    -0.00   0.01  -0.00     0.05  -0.17   0.00     0.01  -0.03   0.00
  16   1    -0.01  -0.00   0.00     0.18   0.01  -0.00    -0.03   0.00   0.00
  17   6     0.00  -0.00  -0.00    -0.00   0.00   0.00    -0.11  -0.16  -0.02
  18   1    -0.00   0.00   0.00     0.00  -0.00   0.00    -0.26   0.64   0.00
  19   1    -0.00  -0.00  -0.00     0.00  -0.00  -0.00     0.69  -0.04   0.00
  20   8    -0.00   0.00  -0.00    -0.00   0.00  -0.00    -0.01  -0.01   0.02
  21   1     0.00  -0.00   0.00     0.00  -0.00  -0.00    -0.00  -0.00   0.00
                     52                     53                     54
                        a                      a                      a 
 Frequencies --  2973.7813              2977.8107              2985.7984
 Red. masses --    99.0000                99.0000                99.0000
 Frc consts  --    99.0000                99.0000                99.0000
 IR Inten    --    99.0000                99.0000                99.0000
 Raman Activ --     0.0000                 0.0000                 0.0000
 Depolar     --     0.0000                 0.0000                 0.0000
 Atom AN      X      Y      Z        X      Y      Z        X      Y      Z
   1   6     0.00   0.01  -0.01     0.00   0.00  -0.01     0.02   0.02  -0.02
   2   1     0.01  -0.02  -0.00     0.01  -0.02  -0.00     0.02  -0.06  -0.00
   3   1    -0.01  -0.01   0.02    -0.01  -0.01   0.02    -0.02  -0.03   0.05
   4   1    -0.02   0.00  -0.00    -0.02   0.00  -0.00    -0.06   0.00  -0.00
   5   6    -0.04  -0.06   0.00    -0.08  -0.12  -0.00    -0.07  -0.10   0.00
   6   1    -0.09   0.23   0.00    -0.19   0.48  -0.00    -0.15   0.37  -0.00
   7   1     0.24  -0.01   0.00     0.50  -0.02  -0.00     0.39  -0.02  -0.00
   8   6    -0.02  -0.03   0.00     0.08   0.11   0.00    -0.09  -0.12   0.00
   9   1    -0.05   0.12   0.00     0.17  -0.42   0.00    -0.18   0.45  -0.00
  10   1     0.13  -0.00   0.00    -0.47   0.02   0.00     0.48  -0.02  -0.00
  11   6     0.11   0.15  -0.00    -0.01  -0.02   0.00    -0.04  -0.06  -0.00
  12   1     0.23  -0.59   0.00    -0.04   0.10   0.00    -0.09   0.22  -0.00
  13   1    -0.63   0.02   0.00     0.10  -0.00   0.00     0.23  -0.01  -0.00
  14   6    -0.01  -0.01  -0.00    -0.01  -0.01   0.00     0.03   0.04  -0.00
  15   1    -0.03   0.07  -0.00    -0.01   0.03   0.00     0.06  -0.16   0.00
  16   1     0.07  -0.00  -0.00     0.04  -0.00   0.00    -0.16   0.01   0.00
  17   6     0.00   0.00   0.00    -0.00  -0.00  -0.00     0.00   0.00   0.00
  18   1     0.01  -0.02  -0.00    -0.00   0.01  -0.00    -0.00   0.00   0.00
  19   1    -0.02   0.00  -0.00     0.01  -0.00  -0.00     0.00   0.00   0.00
  20   8     0.00   0.00   0.00    -0.00  -0.00   0.00    -0.00  -0.00  -0.00
  21   1    -0.00  -0.00  -0.00     0.00   0.00   0.00     0.00   0.00   0.00
                     55                     56                     57
                        a                      a                      a 
 Frequencies --  3038.0443              3001.2017              3565.2502
 Red. masses --    99.0000                99.0000                99.0000
 Frc consts  --    99.0000                99.0000                99.0000
 IR Inten    --    99.0000                99.0000                99.0000
 Raman Activ --     0.0000                 0.0000                 0.0000
 Depolar     --     0.0000                 0.0000                 0.0000
 Atom AN      X      Y      Z        X      Y      Z        X      Y      Z
   1   6    -0.03  -0.04  -0.14     0.01   0.01  -0.01    -0.00  -0.00   0.00
   2   1    -0.18   0.49  -0.01     0.01  -0.02  -0.00     0.00   0.00   0.00
   3   1    -0.23  -0.32   0.53    -0.01  -0.01   0.02     0.00   0.00  -0.00
   4   1     0.52  -0.00  -0.01    -0.02   0.00  -0.00     0.00   0.00   0.00
   5   6    -0.00  -0.01  -0.01    -0.01  -0.01   0.00    -0.00  -0.00  -0.00
   6   1    -0.01   0.01  -0.00    -0.02   0.04  -0.00     0.00  -0.00  -0.00
   7   1     0.01  -0.00  -0.00     0.05  -0.00  -0.00    -0.00   0.00  -0.00
   8   6    -0.00  -0.00   0.00    -0.02  -0.03  -0.00     0.00   0.00  -0.00
   9   1    -0.01   0.01  -0.00    -0.05   0.12   0.00    -0.00   0.00   0.00
  10   1     0.01  -0.00  -0.00     0.13  -0.01   0.00     0.00   0.00   0.00
  11   6    -0.00  -0.00  -0.00    -0.03  -0.04   0.00    -0.00  -0.00  -0.00
  12   1    -0.00   0.00   0.00    -0.05   0.11  -0.00     0.00  -0.00  -0.00
  13   1     0.00  -0.00   0.00     0.12  -0.01   0.00    -0.00   0.00  -0.00
  14   6    -0.00  -0.00   0.00    -0.12  -0.16   0.01     0.00   0.00  -0.00
  15   1    -0.00   0.00  -0.00    -0.24   0.62  -0.01    -0.00   0.00   0.00
  16   1     0.00  -0.00  -0.00     0.67  -0.02  -0.01     0.01  -0.00   0.00
  17   6    -0.00  -0.00   0.00    -0.01  -0.01  -0.00    -0.00  -0.00  -0.00
  18   1    -0.00   0.00   0.00    -0.01   0.03   0.00     0.00   0.00   0.00
  19   1     0.00  -0.00   0.00     0.03  -0.00   0.00     0.00   0.00   0.00
  20   8     0.00   0.00  -0.00     0.00   0.00   0.00    -0.08  -0.11  -0.20
  21   1    -0.00  -0.00   0.00    -0.00  -0.00  -0.01     0.31   0.43   0.81
