 Entering Gaussian System
 *********************************************
 Gaussian 98:
 frequency output generated by the xtb code
 *********************************************
                         Standard orientation:
 --------------------------------------------------------------------
  Center     Atomic     Atomic              Coordinates (Angstroms)
  Number     Number      Type              X           Y           Z
 --------------------------------------------------------------------
    1          6             0       -2.800297   -0.277519   -0.044844
    2          1             0       -2.441440   -1.303720    0.002125
    3          1             0       -2.406258    0.182219   -0.948599
    4          1             0       -3.885678   -0.299041   -0.116512
    5          6             0       -2.361628    0.501023    1.189475
    6          1             0       -1.270190    0.516613    1.238979
    7          1             0       -2.706198    1.532542    1.100217
    8          6             0       -2.913956   -0.118770    2.471416
    9          1             0       -4.005336   -0.065503    2.456448
   10          1             0       -2.636810   -1.175975    2.495191
   11          6             0       -2.394295    0.550126    3.744267
   12          1             0       -2.723041   -0.037818    4.604961
   13          1             0       -1.301734    0.538926    3.736174
   14          6             0       -2.883489    1.983790    3.913731
   15          1             0       -2.490418    2.626145    3.129836
   16          1             0       -3.970515    2.021470    3.877768
   17          1             0       -2.558551    2.382513    4.872431
 --------------------------------------------------------------------
     1 basis functions        1 primitive gaussians
     1 alpha electrons        1 beta electrons
 
 Harmonic frequencies (cm**-1), IR intensities (KM/Mole),
 Raman scattering activities (A**4/amu), Raman depolarization ratios,
 reduced masses (AMU), force constants (mDyne/A) and normal coordinates:
                      1                      2                      3
                        a                      a                      a 
 Frequencies --    72.3642               116.1980               215.4201
 Red. masses --     6.3977                 6.3594                 4.3553
 Frc consts  --     0.0000                 0.0000                 0.0000
 IR Inten    --     0.0450                 0.0099                 0.0153
 Raman Activ --     0.0000                 0.0000                 0.0000
 Depolar     --     0.0000                 0.0000                 0.0000
 Atom AN      X      Y      Z        X      Y      Z        X      Y      Z
   1   6    -0.30   0.15  -0.02     0.17  -0.26  -0.05    -0.13  -0.24   0.04
   2   1    -0.33  -0.04  -0.03     0.03  -0.08   0.08    -0.03  -0.07   0.08
   3   1     0.00  -0.04  -0.01     0.11  -0.14  -0.02    -0.09  -0.15  -0.05
   4   1    -0.09   0.30   0.02     0.05  -0.06  -0.07    -0.04  -0.08   0.08
   5   6     0.41  -0.26  -0.01    -0.01  -0.01  -0.15     0.09   0.08  -0.22
   6   1     0.12  -0.29  -0.04    -0.00  -0.02   0.01     0.03   0.01  -0.10
   7   1     0.32  -0.01   0.04     0.03   0.00  -0.12     0.03   0.02  -0.10
   8   6     0.16   0.00   0.01    -0.25   0.28  -0.10     0.12   0.21  -0.14
   9   1     0.05   0.05  -0.04    -0.07   0.21  -0.02     0.04   0.07  -0.05
  10   1    -0.00  -0.01   0.05    -0.20   0.05  -0.03     0.02   0.06  -0.05
  11   6     0.08   0.12  -0.02     0.11   0.07  -0.14    -0.01   0.03   0.01
  12   1     0.08   0.01   0.00     0.15  -0.05  -0.04    -0.05  -0.05  -0.05
  13   1     0.02   0.12  -0.03     0.03   0.07  -0.16    -0.00   0.00   0.06
  14   6    -0.30  -0.02   0.03    -0.04  -0.05   0.41    -0.04  -0.01   0.28
  15   1    -0.18   0.02  -0.01    -0.26   0.02   0.03     0.31   0.13   0.35
  16   1    -0.09  -0.10   0.06    -0.02  -0.08   0.41     0.00   0.05  -0.33
  17   1    -0.07   0.03  -0.01     0.21  -0.01   0.04    -0.36  -0.19   0.28
                      4                      5                      6
                        a                      a                      a 
 Frequencies --   231.0397               283.2824               330.9677
 Red. masses --     2.0641                 5.6198                 8.2188
 Frc consts  --     0.0000                 0.0000                 0.0000
 IR Inten    --     0.0171                 0.0243                 0.0578
 Raman Activ --     0.0000                 0.0000                 0.0000
 Depolar     --     0.0000                 0.0000                 0.0000
 Atom AN      X      Y      Z        X      Y      Z        X      Y      Z
   1   6    -0.07   0.00   0.00     0.14   0.12  -0.12    -0.03  -0.01   0.41
   2   1     0.37   0.12  -0.28     0.12   0.06  -0.16    -0.01   0.00   0.21
   3   1    -0.48   0.29  -0.05     0.03   0.18   0.03    -0.07  -0.10   0.04
   4   1    -0.03  -0.39   0.34     0.04  -0.04  -0.07    -0.01  -0.01   0.19
   5   6     0.23  -0.12  -0.03    -0.12  -0.23   0.18     0.13   0.30   0.11
   6   1     0.07  -0.12  -0.02    -0.04  -0.12   0.11     0.04   0.05   0.05
   7   1     0.15  -0.01  -0.00     0.03  -0.04   0.07     0.06   0.09  -0.01
   8   6    -0.02   0.07  -0.05    -0.31  -0.05   0.18    -0.12   0.23  -0.07
   9   1    -0.00   0.09  -0.06    -0.08   0.12   0.11    -0.03   0.22  -0.01
  10   1    -0.08   0.00   0.01    -0.21  -0.04   0.07    -0.19   0.03  -0.12
  11   6    -0.11   0.00   0.02     0.31   0.11  -0.16     0.17  -0.21  -0.05
  12   1    -0.07   0.00  -0.01     0.29   0.03   0.03     0.08  -0.06  -0.01
  13   1    -0.03  -0.02   0.04     0.09   0.12  -0.24     0.05  -0.04  -0.06
  14   6    -0.01   0.04   0.04    -0.05  -0.01  -0.06    -0.08  -0.29  -0.36
  15   1    -0.06  -0.01  -0.03     0.13   0.10   0.14    -0.04  -0.12  -0.14
  16   1    -0.00   0.02   0.10    -0.01  -0.06  -0.27    -0.02  -0.17  -0.15
  17   1     0.08   0.03  -0.02    -0.27  -0.08   0.10    -0.09   0.02  -0.13
                      7                      8                      9
                        a                      a                      a 
 Frequencies --   470.5084               776.0657               807.9446
 Red. masses --     8.0309                 2.2697                 2.8766
 Frc consts  --     0.0000                 0.0000                 0.0000
 IR Inten    --     0.0178                 0.0438                 0.0328
 Raman Activ --     0.0000                 0.0000                 0.0000
 Depolar     --     0.0000                 0.0000                 0.0000
 Atom AN      X      Y      Z        X      Y      Z        X      Y      Z
   1   6     0.02   0.06   0.35    -0.03  -0.00  -0.05     0.03  -0.03  -0.08
   2   1    -0.01   0.01   0.15     0.13   0.05   0.12    -0.12  -0.06  -0.10
   3   1    -0.04  -0.05   0.05     0.04  -0.05  -0.02    -0.09  -0.03  -0.08
   4   1    -0.00   0.02   0.17     0.01  -0.16  -0.12    -0.01   0.13   0.14
   5   6     0.11   0.07   0.18    -0.12   0.16  -0.05     0.21   0.03  -0.08
   6   1     0.03   0.01   0.09    -0.02  -0.41   0.05     0.05   0.28  -0.02
   7   1     0.03   0.02   0.11     0.40   0.18  -0.08    -0.20  -0.08  -0.06
   8   6    -0.10  -0.32  -0.22    -0.14   0.13   0.04    -0.06  -0.08   0.03
   9   1    -0.03  -0.23  -0.13    -0.05  -0.36   0.06    -0.01   0.03  -0.13
  10   1     0.12  -0.05  -0.03     0.35   0.13  -0.08    -0.07  -0.03   0.02
  11   6    -0.17   0.08  -0.49    -0.07  -0.03   0.14    -0.17  -0.09   0.23
  12   1     0.09   0.03  -0.09     0.20  -0.09   0.07     0.40  -0.14   0.15
  13   1    -0.05   0.06  -0.26    -0.02   0.10  -0.17    -0.04   0.28  -0.29
  14   6     0.06   0.13   0.08     0.02  -0.07   0.02    -0.07   0.02   0.07
  15   1     0.03   0.15   0.12     0.10  -0.16  -0.07     0.21  -0.26  -0.09
  16   1     0.02   0.13   0.09     0.01   0.07  -0.06    -0.00   0.29  -0.07
  17   1     0.10  -0.16   0.08     0.01   0.09  -0.04     0.06   0.13  -0.06
                     10                     11                     12
                        a                      a                      a 
 Frequencies --   887.0779               902.8727               966.1727
 Red. masses --     4.2575                 5.2925                 6.3060
 Frc consts  --     0.0000                 0.0000                 0.0000
 IR Inten    --     0.0500                 0.0609                 0.0921
 Raman Activ --     0.0000                 0.0000                 0.0000
 Depolar     --     0.0000                 0.0000                 0.0000
 Atom AN      X      Y      Z        X      Y      Z        X      Y      Z
   1   6    -0.09   0.11  -0.08     0.09   0.00  -0.19    -0.02  -0.00   0.29
   2   1     0.18   0.11   0.34    -0.10  -0.04   0.04     0.03   0.00  -0.11
   3   1     0.04  -0.20  -0.11    -0.18  -0.20  -0.24     0.13   0.22   0.25
   4   1    -0.01  -0.24  -0.16    -0.00   0.08   0.24     0.01   0.02  -0.10
   5   6    -0.02   0.15  -0.08     0.15   0.16  -0.12    -0.11  -0.16   0.01
   6   1     0.01  -0.13  -0.20     0.03   0.08   0.16    -0.03  -0.05  -0.05
   7   1     0.12   0.10   0.27     0.01   0.03  -0.05    -0.04  -0.05  -0.06
   8   6     0.09  -0.39  -0.05    -0.33  -0.24  -0.01     0.01  -0.05  -0.40
   9   1     0.04   0.25  -0.01    -0.09  -0.21  -0.00     0.00  -0.02  -0.17
  10   1    -0.32  -0.19  -0.07     0.05  -0.03  -0.03    -0.00  -0.02  -0.19
  11   6     0.07  -0.09   0.12     0.16  -0.01   0.18     0.15  -0.13   0.09
  12   1     0.06   0.01   0.08    -0.03   0.14   0.12     0.03  -0.15  -0.06
  13   1     0.02   0.09   0.06     0.04  -0.24  -0.01     0.04  -0.10  -0.01
  14   6    -0.09   0.20   0.03     0.10   0.19   0.07    -0.00   0.31   0.23
  15   1     0.02   0.04   0.01    -0.17   0.14   0.00    -0.03  -0.09  -0.10
  16   1    -0.02   0.14   0.03     0.01  -0.30  -0.04    -0.00  -0.08  -0.11
  17   1     0.02   0.05  -0.00    -0.19   0.20   0.03    -0.18   0.43  -0.03
                     13                     14                     15
                        a                      a                      a 
 Frequencies --  1006.8194              1045.2834              1091.1528
 Red. masses --     3.1904                 3.9174                 8.9604
 Frc consts  --     0.0000                 0.0000                 0.0000
 IR Inten    --     0.0260                 0.0208                 0.0262
 Raman Activ --     0.0000                 0.0000                 0.0000
 Depolar     --     0.0000                 0.0000                 0.0000
 Atom AN      X      Y      Z        X      Y      Z        X      Y      Z
   1   6    -0.15   0.04   0.00    -0.10  -0.20   0.08     0.19   0.29   0.36
   2   1     0.12   0.07   0.12    -0.02  -0.06  -0.26     0.04   0.07   0.14
   3   1     0.11   0.00   0.06     0.11   0.22   0.21     0.02   0.05   0.07
   4   1    -0.02  -0.16  -0.22    -0.01   0.02  -0.18     0.04   0.10   0.17
   5   6     0.15  -0.03  -0.00     0.10   0.21  -0.01    -0.13  -0.21  -0.54
   6   1     0.05   0.11  -0.31     0.03   0.01  -0.11    -0.03  -0.08  -0.21
   7   1    -0.10  -0.04   0.18     0.07   0.05  -0.20    -0.01  -0.05  -0.25
   8   6    -0.02   0.09   0.09    -0.02  -0.07   0.07    -0.11  -0.13  -0.02
   9   1    -0.00  -0.03  -0.39    -0.00  -0.00  -0.07    -0.03  -0.04   0.05
  10   1     0.04   0.04   0.32    -0.02  -0.03  -0.26    -0.04  -0.04   0.06
  11   6    -0.21   0.14   0.03    -0.03  -0.20   0.20    -0.01   0.18   0.16
  12   1     0.07   0.11   0.10     0.14   0.20   0.28     0.01   0.15   0.12
  13   1    -0.06  -0.16  -0.28    -0.01  -0.04  -0.12    -0.00   0.10   0.07
  14   6     0.21  -0.15   0.02    -0.02   0.14  -0.21     0.05  -0.16  -0.05
  15   1    -0.08  -0.00  -0.03    -0.11   0.33   0.14     0.01   0.00   0.03
  16   1     0.04  -0.32  -0.06    -0.01  -0.00   0.12     0.01  -0.03   0.03
  17   1    -0.12   0.08   0.01     0.05  -0.28   0.06     0.04  -0.13   0.02
                     16                     17                     18
                        a                      a                      a 
 Frequencies --  1131.3480              1155.4102              1185.4923
 Red. masses --     7.9895                 7.0921                 6.7195
 Frc consts  --     0.0000                 0.0000                 0.0000
 IR Inten    --     0.0903                 0.0494                 0.0510
 Raman Activ --     0.0000                 0.0000                 0.0000
 Depolar     --     0.0000                 0.0000                 0.0000
 Atom AN      X      Y      Z        X      Y      Z        X      Y      Z
   1   6     0.08   0.16   0.05     0.07   0.14  -0.08     0.18  -0.04  -0.03
   2   1     0.03   0.05   0.12    -0.00   0.03   0.18    -0.10  -0.06  -0.07
   3   1    -0.01  -0.05  -0.04    -0.07  -0.14  -0.14    -0.09  -0.01  -0.07
   4   1     0.02   0.01   0.08     0.01  -0.02   0.13     0.03   0.13   0.19
   5   6    -0.01  -0.14  -0.18    -0.18  -0.34   0.17    -0.31   0.06   0.04
   6   1     0.00   0.01  -0.17    -0.05  -0.03   0.15    -0.08  -0.19   0.07
   7   1    -0.03  -0.05  -0.06    -0.11  -0.09   0.21     0.13   0.08  -0.03
   8   6     0.09   0.19   0.34     0.07   0.29  -0.33     0.39  -0.04   0.05
   9   1     0.02  -0.02   0.16     0.02  -0.04  -0.28     0.10   0.23   0.07
  10   1     0.07   0.06   0.16     0.10   0.09  -0.11    -0.14  -0.07  -0.12
  11   6    -0.02  -0.48  -0.17     0.05  -0.10   0.31    -0.40  -0.00  -0.05
  12   1     0.04  -0.20  -0.08     0.12  -0.01   0.13     0.11   0.01   0.07
  13   1    -0.01  -0.31  -0.24     0.01   0.05  -0.03    -0.10   0.09  -0.22
  14   6    -0.13   0.33  -0.04    -0.01   0.06  -0.20     0.24   0.01   0.04
  15   1    -0.06   0.15   0.03    -0.05   0.22   0.09    -0.11   0.05  -0.03
  16   1    -0.04   0.10   0.03    -0.01   0.01   0.10     0.05  -0.29  -0.06
  17   1    -0.03   0.03   0.01     0.05  -0.20   0.03    -0.13   0.11   0.03
                     19                     20                     21
                        a                      a                      a 
 Frequencies --  1242.2789              1266.3599              1287.9814
 Red. masses --     4.0280                 2.9812                 1.9237
 Frc consts  --     0.0000                 0.0000                 0.0000
 IR Inten    --     0.0322                 0.0119                 0.0099
 Raman Activ --     0.0000                 0.0000                 0.0000
 Depolar     --     0.0000                 0.0000                 0.0000
 Atom AN      X      Y      Z        X      Y      Z        X      Y      Z
   1   6    -0.24   0.17  -0.01     0.05  -0.13   0.05    -0.11   0.05   0.00
   2   1     0.15   0.12   0.19    -0.04  -0.05  -0.12     0.05   0.04   0.06
   3   1     0.10  -0.07   0.01    -0.00   0.08   0.06     0.02   0.01   0.02
   4   1    -0.04  -0.19  -0.18     0.01   0.09   0.02    -0.02  -0.05  -0.08
   5   6     0.27  -0.19  -0.00     0.02   0.14  -0.13    -0.09   0.11  -0.05
   6   1     0.05   0.19   0.26     0.01  -0.03  -0.14    -0.04  -0.02   0.50
   7   1    -0.13  -0.13  -0.26     0.02   0.07   0.30     0.09   0.03  -0.44
   8   6    -0.01   0.02   0.00    -0.16  -0.02  -0.07     0.13  -0.13   0.01
   9   1    -0.01  -0.01   0.36    -0.05  -0.08   0.08     0.04   0.08  -0.39
  10   1     0.01   0.00  -0.26     0.01   0.02   0.31    -0.09  -0.05   0.48
  11   6    -0.21  -0.04  -0.02    -0.05  -0.09   0.13     0.06  -0.03   0.05
  12   1     0.06  -0.10  -0.03     0.06  -0.46  -0.24     0.03  -0.15  -0.08
  13   1    -0.05   0.28   0.06    -0.01   0.38   0.20     0.02  -0.01   0.03
  14   6     0.19   0.04  -0.02     0.17   0.09  -0.16    -0.02   0.06  -0.05
  15   1    -0.10   0.09  -0.02    -0.11   0.22   0.05    -0.01   0.04   0.01
  16   1     0.04  -0.19  -0.02     0.03  -0.16   0.05    -0.00   0.01   0.02
  17   1    -0.09   0.02   0.04    -0.05  -0.05   0.02     0.01  -0.06   0.01
                     22                     23                     24
                        a                      a                      a 
 Frequencies --  1311.5376              1354.3325              1375.0195
 Red. masses --     3.5286                 4.6134                 5.1900
 Frc consts  --     0.0000                 0.0000                 0.0000
 IR Inten    --     0.0622                 0.1053                 0.0123
 Raman Activ --     0.0000                 0.0000                 0.0000
 Depolar     --     0.0000                 0.0000                 0.0000
 Atom AN      X      Y      Z        X      Y      Z        X      Y      Z
   1   6     0.09   0.11  -0.06    -0.02  -0.00   0.01     0.04   0.05  -0.05
   2   1    -0.05  -0.00   0.02     0.01   0.00  -0.01    -0.06  -0.01  -0.01
   3   1    -0.08  -0.12  -0.13     0.02  -0.00   0.01    -0.04  -0.06  -0.07
   4   1     0.01  -0.04   0.04    -0.00  -0.01  -0.01     0.01  -0.06  -0.00
   5   6    -0.06  -0.02   0.32     0.03   0.00  -0.01     0.00   0.05   0.39
   6   1     0.01  -0.03  -0.43     0.01   0.01   0.02     0.02  -0.04  -0.34
   7   1     0.02  -0.03  -0.41    -0.00  -0.00   0.00    -0.01  -0.03  -0.35
   8   6    -0.10  -0.06   0.27     0.04  -0.12  -0.02     0.00  -0.04  -0.45
   9   1    -0.02  -0.04  -0.38     0.01   0.03   0.14    -0.00   0.05   0.40
  10   1     0.01  -0.01  -0.27    -0.06  -0.05  -0.18     0.02   0.01   0.41
  11   6     0.06   0.05  -0.05    -0.02   0.44   0.31    -0.02  -0.02   0.10
  12   1    -0.06  -0.21  -0.19     0.00  -0.43  -0.29     0.03   0.07   0.09
  13   1     0.02   0.18   0.16    -0.01  -0.43  -0.31    -0.01  -0.06  -0.08
  14   6     0.05   0.05  -0.02    -0.07   0.02  -0.12    -0.00  -0.01  -0.02
  15   1    -0.02   0.01  -0.02     0.09  -0.03   0.00    -0.01   0.02   0.01
  16   1     0.01  -0.07  -0.00    -0.02  -0.07   0.06    -0.00   0.04   0.03
  17   1    -0.01  -0.04   0.02     0.09  -0.20   0.02    -0.03  -0.02   0.01
                     25                     26                     27
                        a                      a                      a 
 Frequencies --  1415.5720              1417.3931              1491.9943
 Red. masses --     3.2317                 3.1561                 1.8888
 Frc consts  --     0.0000                 0.0000                 0.0000
 IR Inten    --     0.0400                 0.0534                 0.0330
 Raman Activ --     0.0000                 0.0000                 0.0000
 Depolar     --     0.0000                 0.0000                 0.0000
 Atom AN      X      Y      Z        X      Y      Z        X      Y      Z
   1   6    -0.06  -0.12  -0.20     0.10   0.17   0.31     0.00   0.02  -0.01
   2   1     0.11   0.04   0.25    -0.17  -0.07  -0.39    -0.05  -0.02  -0.00
   3   1     0.12   0.20   0.15    -0.20  -0.30  -0.22     0.06   0.01   0.03
   4   1    -0.02   0.14   0.25     0.04  -0.20  -0.38    -0.00  -0.06   0.06
   5   6     0.00   0.01   0.05     0.01   0.01  -0.06    -0.01  -0.01  -0.02
   6   1     0.00  -0.00  -0.05    -0.00  -0.06   0.06    -0.00  -0.01   0.01
   7   1     0.01   0.00  -0.01    -0.06  -0.01   0.08    -0.01  -0.00   0.03
   8   6    -0.01   0.03  -0.03     0.01   0.03  -0.01    -0.15  -0.16   0.01
   9   1    -0.01  -0.04   0.01     0.00  -0.01   0.02     0.02   0.52  -0.02
  10   1    -0.02   0.00   0.05    -0.00   0.01   0.03     0.51   0.13  -0.02
  11   6    -0.00  -0.07  -0.05    -0.01  -0.05  -0.03    -0.10   0.08  -0.11
  12   1     0.04   0.06   0.06     0.04   0.05   0.05     0.38  -0.08   0.09
  13   1     0.00   0.05   0.08     0.00   0.02   0.05    -0.00  -0.23   0.33
  14   6    -0.11   0.34   0.06    -0.07   0.22   0.04     0.02   0.01  -0.04
  15   1     0.19  -0.32  -0.18     0.13  -0.21  -0.11     0.01  -0.04  -0.04
  16   1    -0.02  -0.42  -0.08    -0.01  -0.28  -0.05    -0.00   0.03   0.10
  17   1     0.20  -0.35   0.10     0.13  -0.22   0.06    -0.11  -0.02   0.04
                     28                     29                     30
                        a                      a                      a 
 Frequencies --  1494.8275              1497.6502              1505.9935
 Red. masses --     1.7750                 1.9578                 1.5378
 Frc consts  --     0.0000                 0.0000                 0.0000
 IR Inten    --     0.0227                 0.0495                 0.0260
 Raman Activ --     0.0000                 0.0000                 0.0000
 Depolar     --     0.0000                 0.0000                 0.0000
 Atom AN      X      Y      Z        X      Y      Z        X      Y      Z
   1   6    -0.02  -0.02  -0.01     0.01   0.03   0.01    -0.17   0.13  -0.02
   2   1     0.09   0.03  -0.00    -0.09  -0.03  -0.01     0.13   0.04  -0.42
   3   1     0.01  -0.02  -0.01     0.03   0.01   0.02     0.59  -0.39   0.06
   4   1    -0.00   0.09   0.01     0.00  -0.11   0.02    -0.04  -0.18   0.45
   5   6     0.12   0.17  -0.02    -0.09  -0.12  -0.03    -0.03   0.04  -0.00
   6   1     0.01  -0.50   0.05    -0.01   0.36   0.01    -0.01  -0.04  -0.01
   7   1    -0.48  -0.15  -0.02     0.34   0.11   0.03    -0.02   0.01   0.01
   8   6    -0.03  -0.05   0.04    -0.09  -0.12   0.00     0.01   0.01  -0.00
   9   1     0.01   0.16  -0.03     0.01   0.33  -0.00    -0.00  -0.03  -0.02
  10   1     0.15   0.04  -0.02     0.32   0.08   0.02    -0.04  -0.01   0.02
  11   6     0.07  -0.07   0.05     0.11  -0.10   0.12     0.00  -0.01   0.00
  12   1    -0.27   0.06  -0.06    -0.42   0.08  -0.10    -0.00  -0.00  -0.00
  13   1     0.00   0.16  -0.22     0.00   0.26  -0.36    -0.00   0.01  -0.00
  14   6     0.01   0.03  -0.09    -0.02   0.04  -0.01    -0.02  -0.01   0.02
  15   1     0.18  -0.09   0.01     0.08  -0.04   0.01     0.01   0.04   0.04
  16   1    -0.01  -0.04   0.32    -0.00  -0.08   0.04    -0.00  -0.03  -0.06
  17   1    -0.22   0.03   0.06     0.02  -0.01   0.00     0.08   0.03  -0.04
                     31                     32                     33
                        a                      a                      a 
 Frequencies --  1507.8088              1508.4860              1511.3701
 Red. masses --     1.6513                 1.6215                 1.5635
 Frc consts  --     0.0000                 0.0000                 0.0000
 IR Inten    --     0.0216                 0.0245                 0.0270
 Raman Activ --     0.0000                 0.0000                 0.0000
 Depolar     --     0.0000                 0.0000                 0.0000
 Atom AN      X      Y      Z        X      Y      Z        X      Y      Z
   1   6    -0.02   0.01   0.01     0.12   0.13  -0.11    -0.00  -0.02   0.01
   2   1     0.01   0.00  -0.05    -0.59  -0.19   0.16     0.06   0.02   0.03
   3   1     0.04  -0.05  -0.00     0.10   0.26   0.16    -0.06   0.00  -0.02
   4   1    -0.00  -0.02   0.03     0.01  -0.59   0.14     0.00   0.09  -0.05
   5   6    -0.06  -0.08   0.01     0.05   0.06  -0.05    -0.00  -0.02   0.02
   6   1    -0.00   0.24  -0.02     0.01  -0.10   0.04     0.00   0.01  -0.01
   7   1     0.24   0.08   0.01    -0.10  -0.03   0.02     0.01  -0.01  -0.05
   8   6     0.05   0.06  -0.00     0.02   0.02   0.02    -0.00  -0.01   0.00
   9   1    -0.01  -0.20   0.00    -0.00  -0.08  -0.00     0.00   0.03   0.02
  10   1    -0.18  -0.05   0.00    -0.08  -0.02  -0.01     0.02   0.01  -0.00
  11   6    -0.02   0.01  -0.08    -0.00   0.00  -0.01    -0.06  -0.01  -0.04
  12   1     0.09   0.02   0.04     0.00  -0.00  -0.00     0.08  -0.01   0.02
  13   1     0.00  -0.05   0.10    -0.00   0.00   0.01    -0.01  -0.01   0.07
  14   6     0.04   0.04  -0.18    -0.02  -0.01  -0.02    -0.19  -0.06  -0.06
  15   1     0.30  -0.18  -0.01     0.07   0.02   0.05     0.48   0.22   0.42
  16   1    -0.02  -0.02   0.61    -0.00  -0.04   0.04    -0.03  -0.34   0.09
  17   1    -0.45   0.05   0.12     0.02   0.05  -0.03     0.33   0.38  -0.28
                     34                     35                     36
                        a                      a                      a 
 Frequencies --  2956.4817              2960.4363              2968.6554
 Red. masses --     1.9128                 1.9115                 1.7535
 Frc consts  --     0.0000                 0.0000                 0.0000
 IR Inten    --     0.1251                 0.1769                 0.1913
 Raman Activ --     0.0000                 0.0000                 0.0000
 Depolar     --     0.0000                 0.0000                 0.0000
 Atom AN      X      Y      Z        X      Y      Z        X      Y      Z
   1   6    -0.00  -0.00   0.00     0.00   0.00  -0.00     0.02  -0.01  -0.00
   2   1     0.00  -0.01  -0.00     0.00   0.00   0.00    -0.02   0.06  -0.00
   3   1     0.00   0.00  -0.01    -0.00  -0.00   0.01    -0.00  -0.01   0.01
   4   1     0.02   0.00   0.00    -0.02  -0.00  -0.00    -0.07  -0.00  -0.01
   5   6     0.10  -0.05   0.01    -0.05   0.01  -0.00    -0.22   0.05  -0.01
   6   1    -0.31  -0.01  -0.01     0.16   0.00   0.01     0.77   0.00   0.04
   7   1    -0.06   0.21  -0.02     0.01  -0.05   0.00     0.03  -0.16   0.01
   8   6    -0.19   0.18  -0.01    -0.02  -0.05  -0.00    -0.01   0.11   0.00
   9   1     0.55  -0.01   0.01     0.17  -0.02   0.00    -0.12   0.02  -0.00
  10   1     0.15  -0.63   0.01    -0.07   0.21  -0.00     0.13  -0.43   0.01
  11   6     0.05   0.00   0.00     0.20   0.10  -0.16     0.04  -0.02   0.04
  12   1     0.01   0.00  -0.01    -0.21  -0.39   0.57     0.07   0.10  -0.15
  13   1    -0.21  -0.00   0.00    -0.53   0.02  -0.01    -0.23  -0.00   0.01
  14   6     0.00  -0.00   0.00    -0.02  -0.01   0.01    -0.00  -0.00  -0.00
  15   1     0.00   0.00  -0.00     0.02   0.04  -0.05    -0.00  -0.00   0.00
  16   1    -0.00  -0.00  -0.00     0.06  -0.00   0.00     0.01  -0.00  -0.00
  17   1    -0.00  -0.00  -0.00    -0.01  -0.01  -0.01     0.00   0.01   0.01
                     37                     38                     39
                        a                      a                      a 
 Frequencies --  2976.8157              2979.0751              2989.4269
 Red. masses --     1.5297                 1.6736                 1.5896
 Frc consts  --     0.0000                 0.0000                 0.0000
 IR Inten    --     0.2302                 0.3757                 0.2463
 Raman Activ --     0.0000                 0.0000                 0.0000
 Depolar     --     0.0000                 0.0000                 0.0000
 Atom AN      X      Y      Z        X      Y      Z        X      Y      Z
   1   6     0.01   0.00  -0.00    -0.02   0.00   0.00    -0.00   0.04  -0.02
   2   1     0.00   0.00   0.00     0.01  -0.03   0.00     0.05  -0.13   0.00
   3   1    -0.00  -0.01   0.01     0.00   0.01  -0.02    -0.03  -0.03   0.07
   4   1    -0.05  -0.00  -0.00     0.06   0.00   0.00    -0.02   0.01  -0.00
   5   6    -0.05   0.05  -0.00     0.10  -0.03   0.01    -0.00  -0.22   0.02
   6   1     0.10   0.01   0.01    -0.30  -0.00  -0.01     0.32  -0.03   0.02
   7   1     0.07  -0.21   0.02    -0.03   0.12  -0.01    -0.30   0.82  -0.07
   8   6    -0.12  -0.11   0.00     0.14  -0.01   0.00    -0.01  -0.05   0.00
   9   1     0.58  -0.06   0.01    -0.48   0.03  -0.01     0.07  -0.01   0.00
  10   1    -0.15   0.45  -0.01     0.02   0.01   0.00    -0.05   0.18  -0.00
  11   6     0.02  -0.07   0.10     0.16  -0.05   0.06    -0.01  -0.01   0.01
  12   1     0.17   0.27  -0.39     0.13   0.17  -0.25     0.02   0.03  -0.05
  13   1    -0.27  -0.01   0.02    -0.69  -0.01   0.02     0.02  -0.00   0.00
  14   6     0.00   0.00  -0.01    -0.03  -0.01  -0.02     0.01   0.01  -0.02
  15   1    -0.01  -0.02   0.03    -0.01  -0.01   0.01    -0.03  -0.04   0.05
  16   1     0.00  -0.00  -0.00     0.10  -0.00   0.00    -0.01   0.00  -0.00
  17   1     0.01   0.01   0.03     0.02   0.02   0.05     0.01   0.01   0.01
                     40                     41                     42
                        a                      a                      a 
 Frequencies --  3027.0513              3028.0749              3030.0158
 Red. masses --     1.9163                 1.9196                 1.9455
 Frc consts  --     0.0000                 0.0000                 0.0000
 IR Inten    --     0.1560                 0.3409                 0.3018
 Raman Activ --     0.0000                 0.0000                 0.0000
 Depolar     --     0.0000                 0.0000                 0.0000
 Atom AN      X      Y      Z        X      Y      Z        X      Y      Z
   1   6    -0.13   0.12  -0.02    -0.10   0.20  -0.07    -0.22  -0.11   0.14
   2   1     0.15  -0.45   0.03     0.23  -0.64   0.03    -0.07   0.09   0.02
   3   1    -0.03   0.01   0.02    -0.11  -0.08   0.20     0.24   0.30  -0.57
   4   1     0.35   0.02   0.02     0.22   0.03   0.00     0.61  -0.01   0.05
   5   6    -0.02   0.02  -0.00    -0.02   0.04  -0.00    -0.03  -0.01   0.00
   6   1     0.03   0.00   0.00     0.03   0.00   0.00     0.10  -0.00   0.00
   7   1     0.03  -0.07   0.01     0.04  -0.12   0.01    -0.02   0.04  -0.00
   8   6     0.00   0.00  -0.00    -0.01   0.01  -0.00    -0.01  -0.01   0.00
   9   1    -0.02   0.00  -0.00     0.03   0.00   0.00     0.06  -0.00  -0.00
  10   1     0.00  -0.01   0.00     0.01  -0.04   0.00    -0.01   0.03  -0.00
  11   6     0.03  -0.00   0.00    -0.02   0.00  -0.00    -0.01   0.00  -0.00
  12   1     0.01   0.01  -0.01    -0.00  -0.00   0.00    -0.00  -0.00   0.00
  13   1    -0.08  -0.00   0.00     0.07   0.00  -0.00     0.03   0.00  -0.00
  14   6     0.20   0.02   0.09    -0.16  -0.02  -0.03    -0.05  -0.01  -0.04
  15   1     0.04   0.02  -0.00     0.00   0.04  -0.06    -0.02  -0.03   0.03
  16   1    -0.67   0.02  -0.01     0.54  -0.01   0.02     0.15  -0.00  -0.00
  17   1    -0.07  -0.11  -0.29     0.03   0.06   0.15     0.04   0.05   0.13
                     43                     44                     45
                        a                      a                      a 
 Frequencies --  3031.3152              3035.4579              3043.4386
 Red. masses --     1.7412                 1.2621                 1.5143
 Frc consts  --     0.0000                 0.0000                 0.0000
 IR Inten    --     0.2565                 0.1807                 0.2275
 Raman Activ --     0.0000                 0.0000                 0.0000
 Depolar     --     0.0000                 0.0000                 0.0000
 Atom AN      X      Y      Z        X      Y      Z        X      Y      Z
   1   6     0.00   0.03  -0.02    -0.06  -0.04  -0.13     0.00  -0.01   0.01
   2   1     0.02  -0.05   0.00    -0.16   0.42  -0.04    -0.01   0.03  -0.00
   3   1    -0.04  -0.04   0.08    -0.24  -0.28   0.50     0.01   0.01  -0.02
   4   1     0.01   0.00  -0.00     0.62   0.00   0.02    -0.00  -0.00   0.00
   5   6    -0.00   0.01  -0.00    -0.01  -0.00  -0.01     0.00  -0.01   0.00
   6   1    -0.02   0.00  -0.00     0.02  -0.00   0.00     0.01  -0.00   0.00
   7   1     0.02  -0.04   0.00    -0.00   0.01  -0.00    -0.02   0.06  -0.00
   8   6     0.00   0.00   0.00    -0.00  -0.00   0.00     0.00  -0.01   0.00
   9   1    -0.00   0.00  -0.00     0.02  -0.00  -0.00     0.00  -0.00   0.00
  10   1     0.00  -0.02  -0.00    -0.00   0.01  -0.00    -0.01   0.02  -0.00
  11   6     0.01   0.01  -0.02    -0.00  -0.00   0.00    -0.01  -0.01   0.02
  12   1    -0.02  -0.04   0.06     0.00   0.00  -0.01     0.02   0.03  -0.05
  13   1    -0.01   0.00  -0.00     0.00   0.00   0.00     0.01  -0.00   0.00
  14   6     0.05  -0.03  -0.25    -0.01   0.00   0.01    -0.07  -0.16   0.11
  15   1    -0.10  -0.17   0.18     0.00   0.01  -0.01     0.34   0.52  -0.67
  16   1    -0.36   0.00  -0.05     0.04  -0.00   0.00    -0.15  -0.02   0.01
  17   1     0.27   0.30   0.73    -0.01  -0.01  -0.02     0.07   0.08   0.26
