 Entering Gaussian System
 *********************************************
 Gaussian 98:
 frequency output generated by the xtb code
 *********************************************
                         Standard orientation:
 --------------------------------------------------------------------
  Center     Atomic     Atomic              Coordinates (Angstroms)
  Number     Number      Type              X           Y           Z
 --------------------------------------------------------------------
    1          6             0        1.575630    0.882947   -0.134834
    2          1             0        1.922045   -0.148005   -0.120004
    3          1             0        1.921715    1.411476   -1.020218
    4          1             0        0.485375    0.892380   -0.117809
    5          7             0        2.057631    1.576399    1.066346
    6          8             0        2.232070    2.766259    0.982374
    7          8             0        2.229253    0.909210    2.055593
 --------------------------------------------------------------------
     1 basis functions        1 primitive gaussians
     1 alpha electrons        1 beta electrons
 
 Harmonic frequencies (cm**-1), IR intensities (KM/Mole),
 Raman scattering activities (A**4/amu), Raman depolarization ratios,
 reduced masses (AMU), force constants (mDyne/A) and normal coordinates:
                      1                      2                      3
                        a                      a                      a 
 Frequencies --    35.9970               610.0092               477.8269
 Red. masses --    99.0000                99.0000                99.0000
 Frc consts  --    99.0000                99.0000                99.0000
 IR Inten    --    99.0000                99.0000                99.0000
 Raman Activ --     0.0000                 0.0000                 0.0000
 Depolar     --     0.0000                 0.0000                 0.0000
 Atom AN      X      Y      Z        X      Y      Z        X      Y      Z
   1   6    -0.00  -0.00   0.00     0.04   0.05   0.09    -0.00  -0.33   0.19
   2   1     0.45   0.15  -0.26    -0.18  -0.05  -0.07     0.06  -0.07   0.34
   3   1    -0.45   0.29   0.00    -0.18  -0.03  -0.07    -0.06  -0.33  -0.10
   4   1     0.00  -0.51   0.29     0.01   0.21   0.36    -0.00  -0.17   0.10
   5   7    -0.00   0.01  -0.01     0.71  -0.10  -0.18     0.00   0.28  -0.16
   6   8     0.20  -0.02  -0.04    -0.30   0.06  -0.01     0.15   0.31   0.34
   7   8    -0.20   0.03   0.04    -0.30  -0.04   0.04    -0.15  -0.14  -0.44
                      4                      5                      6
                        a                      a                      a 
 Frequencies --  1059.4557               672.1590               933.2662
 Red. masses --    99.0000                99.0000                99.0000
 Frc consts  --    99.0000                99.0000                99.0000
 IR Inten    --    99.0000                99.0000                99.0000
 Raman Activ --     0.0000                 0.0000                 0.0000
 Depolar     --     0.0000                 0.0000                 0.0000
 Atom AN      X      Y      Z        X      Y      Z        X      Y      Z
   1   6     0.39  -0.09  -0.15     0.19   0.26   0.44     0.20   0.25   0.44
   2   1    -0.27  -0.14  -0.16     0.08   0.08   0.14     0.03   0.06   0.13
   3   1    -0.27  -0.06  -0.20     0.08   0.08   0.14     0.03   0.09   0.12
   4   1     0.10   0.30   0.52     0.05   0.04   0.07     0.05   0.07   0.12
   5   7    -0.41   0.08   0.14    -0.08   0.12   0.21    -0.19  -0.23  -0.41
   6   8     0.08  -0.01  -0.02    -0.07   0.11  -0.51    -0.01  -0.40   0.17
   7   8     0.08  -0.01  -0.02    -0.07  -0.50  -0.16    -0.01   0.35  -0.26
                      7                      8                      9
                        a                      a                      a 
 Frequencies --  1353.8800              1088.6819              1375.3141
 Red. masses --    99.0000                99.0000                99.0000
 Frc consts  --    99.0000                99.0000                99.0000
 IR Inten    --    99.0000                99.0000                99.0000
 Raman Activ --     0.0000                 0.0000                 0.0000
 Depolar     --     0.0000                 0.0000                 0.0000
 Atom AN      X      Y      Z        X      Y      Z        X      Y      Z
   1   6    -0.18  -0.18  -0.30    -0.00  -0.43   0.25    -0.00   0.07   0.12
   2   1     0.30   0.09   0.32    -0.14  -0.16  -0.52    -0.04  -0.00  -0.34
   3   1     0.30   0.23   0.24     0.14   0.37   0.40    -0.04  -0.29  -0.17
   4   1    -0.01   0.24   0.42    -0.00   0.15  -0.09     0.00  -0.10  -0.17
   5   7     0.09   0.15   0.25    -0.00   0.05  -0.03     0.18   0.28   0.48
   6   8    -0.04  -0.24  -0.01     0.05   0.19   0.06    -0.07  -0.43  -0.01
   7   8    -0.04   0.11  -0.21    -0.05   0.04  -0.19    -0.07   0.21  -0.37
                     10                     11                     12
                        a                      a                      a 
 Frequencies --  1418.5818              1423.0211              1710.7859
 Red. masses --    99.0000                99.0000                99.0000
 Frc consts  --    99.0000                99.0000                99.0000
 IR Inten    --    99.0000                99.0000                99.0000
 Raman Activ --     0.0000                 0.0000                 0.0000
 Depolar     --     0.0000                 0.0000                 0.0000
 Atom AN      X      Y      Z        X      Y      Z        X      Y      Z
   1   6    -0.18   0.06   0.11    -0.00  -0.19   0.11     0.00   0.04  -0.02
   2   1     0.40   0.15  -0.45     0.45   0.13   0.05     0.03   0.01   0.06
   3   1     0.41  -0.46  -0.09    -0.45   0.01  -0.14    -0.03  -0.05  -0.04
   4   1    -0.01   0.16   0.29    -0.00   0.62  -0.35    -0.00   0.00  -0.00
   5   7    -0.11  -0.09  -0.15    -0.00   0.01  -0.01    -0.00  -0.70   0.41
   6   8     0.03   0.13   0.00     0.00  -0.02  -0.00     0.06   0.40  -0.03
   7   8     0.03  -0.06   0.11    -0.00  -0.01   0.02    -0.06   0.23  -0.33
                     13                     14                     15
                        a                      a                      a 
 Frequencies --  3022.8958              3051.0400              3064.1840
 Red. masses --    99.0000                99.0000                99.0000
 Frc consts  --    99.0000                99.0000                99.0000
 IR Inten    --    99.0000                99.0000                99.0000
 Raman Activ --     0.0000                 0.0000                 0.0000
 Depolar     --     0.0000                 0.0000                 0.0000
 Atom AN      X      Y      Z        X      Y      Z        X      Y      Z
   1   6     0.26  -0.01  -0.02    -0.10   0.08   0.14    -0.00  -0.26   0.15
   2   1     0.02   0.04  -0.01     0.22  -0.67   0.02    -0.23   0.63   0.00
   3   1     0.02  -0.03   0.03     0.21   0.34  -0.55     0.23   0.32  -0.56
   4   1    -0.96   0.01   0.02    -0.08   0.01   0.01    -0.00  -0.03   0.02
   5   7     0.01   0.00   0.01     0.00   0.01   0.01    -0.00  -0.01   0.01
   6   8    -0.00  -0.00  -0.00    -0.00  -0.00   0.00     0.00   0.00  -0.00
   7   8    -0.00   0.00  -0.00    -0.00   0.00  -0.00    -0.00   0.00  -0.00
