 Entering Gaussian System
 *********************************************
 Gaussian 98:
 frequency output generated by the xtb code
 *********************************************
                         Standard orientation:
 --------------------------------------------------------------------
  Center     Atomic     Atomic              Coordinates (Angstroms)
  Number     Number      Type              X           Y           Z
 --------------------------------------------------------------------
    1          8             0        0.277641   -0.512895    2.139924
    2          1             0        1.240376   -0.529347    2.138179
    3          6             0       -0.158245    0.824174    2.139194
    4          1             0       -1.246275    0.795112    2.141220
    5          1             0        0.184156    1.362657    3.029686
    6          1             0        0.180890    1.360619    1.246225
 --------------------------------------------------------------------
     1 basis functions        1 primitive gaussians
     1 alpha electrons        1 beta electrons
 
 Harmonic frequencies (cm**-1), IR intensities (KM/Mole),
 Raman scattering activities (A**4/amu), Raman depolarization ratios,
 reduced masses (AMU), force constants (mDyne/A) and normal coordinates:
                      1                      2                      3
                        a                      a                      a 
 Frequencies --   375.3688              1031.2646              1091.1059
 Red. masses --     2.0055                 4.2397                10.8431
 Frc consts  --     0.0000                 0.0000                 0.0000
 IR Inten    --     0.5303                 0.6612                 0.9156
 Raman Activ --     0.0000                 0.0000                 0.0000
 Depolar     --     0.0000                 0.0000                 0.0000
 Atom AN      X      Y      Z        X      Y      Z        X      Y      Z
   1   8    -0.00  -0.00  -0.26    -0.15   0.33  -0.00     0.18  -0.54   0.00
   2   1     0.00   0.00   0.86    -0.04  -0.50   0.00     0.04  -0.34   0.00
   3   6     0.00   0.00   0.03     0.30  -0.14  -0.00    -0.13   0.66  -0.00
   4   1     0.00   0.00   0.28     0.08  -0.59   0.00    -0.03  -0.11   0.00
   5   1     0.21   0.05  -0.11    -0.24   0.13   0.02    -0.14   0.17   0.02
   6   1    -0.21  -0.05  -0.11    -0.24   0.13  -0.02    -0.14   0.17  -0.02
                      4                      5                      6
                        a                      a                      a 
 Frequencies --  1140.0976              1314.7272              1416.6170
 Red. masses --     3.6704                 4.1218                 2.3479
 Frc consts  --     0.0000                 0.0000                 0.0000
 IR Inten    --     0.2869                 0.4522                 0.1790
 Raman Activ --     0.0000                 0.0000                 0.0000
 Depolar     --     0.0000                 0.0000                 0.0000
 Atom AN      X      Y      Z        X      Y      Z        X      Y      Z
   1   8     0.00   0.00   0.21    -0.22  -0.25   0.00    -0.03   0.08  -0.00
   2   1     0.00   0.00   0.03    -0.04   0.73  -0.00    -0.01   0.03  -0.00
   3   6    -0.00  -0.00  -0.43     0.34   0.12  -0.00    -0.15   0.30  -0.00
   4   1     0.00   0.00   0.24     0.09  -0.35   0.00     0.00  -0.56   0.00
   5   1     0.15  -0.55   0.18    -0.18   0.10   0.05     0.32  -0.41   0.13
   6   1    -0.15   0.55   0.18    -0.18   0.10  -0.05     0.32  -0.41  -0.13
                      7                      8                      9
                        a                      a                      a 
 Frequencies --  1485.2604              1489.8449              2917.8323
 Red. masses --     1.5300                 1.5307                 1.9430
 Frc consts  --     0.0000                 0.0000                 0.0000
 IR Inten    --     0.0203                 0.0116                 0.3509
 Raman Activ --     0.0000                 0.0000                 0.0000
 Depolar     --     0.0000                 0.0000                 0.0000
 Atom AN      X      Y      Z        X      Y      Z        X      Y      Z
   1   8     0.00   0.00   0.03    -0.03  -0.05   0.00    -0.00  -0.00  -0.01
   2   1     0.00  -0.00   0.01    -0.01   0.06  -0.00     0.00   0.00   0.01
   3   6     0.00   0.00   0.21    -0.18  -0.10   0.00    -0.00  -0.00  -0.29
   4   1    -0.00  -0.00  -0.71    -0.00  -0.30   0.00    -0.00  -0.00  -0.05
   5   1     0.44  -0.14  -0.08     0.38   0.38  -0.37     0.24   0.34   0.54
   6   1    -0.44   0.14  -0.08     0.38   0.38   0.37    -0.23  -0.34   0.54
                     10                     11                     12
                        a                      a                      a 
 Frequencies --  2937.3303              3033.4207              3558.1880
 Red. masses --     1.4461                 1.6896                 1.8770
 Frc consts  --     0.0000                 0.0000                 0.0000
 IR Inten    --     0.2947                 0.1893                 0.1398
 Raman Activ --     0.0000                 0.0000                 0.0000
 Depolar     --     0.0000                 0.0000                 0.0000
 Atom AN      X      Y      Z        X      Y      Z        X      Y      Z
   1   8     0.00  -0.02   0.00     0.00  -0.01   0.00    -0.24   0.00   0.00
   2   1     0.00   0.00   0.00     0.01   0.00  -0.00     0.97  -0.02  -0.00
   3   6    -0.13  -0.15   0.00     0.25   0.01  -0.00    -0.01   0.00   0.00
   4   1     0.01  -0.02  -0.00    -0.97  -0.04   0.00     0.01   0.01  -0.00
   5   1     0.20   0.31   0.58     0.04   0.02   0.02     0.00  -0.00  -0.00
   6   1     0.20   0.31  -0.59     0.04   0.02  -0.02     0.00  -0.00   0.00
