 
        ______________________________________
       |                                      |
       |           ==================         |
       |                 x T B                |
       |           ==================         |
       |               S. Grimme              |
       |        Universitaet Bonn, MCTC       |
       |         2015-18, Version 5.8.1       |
       |      Sun May  6 11:39:08 CEST 2018   |
       |______________________________________|
 
        This code comes without any warranty
        for non-commercial, academia use only.
        Preliminary GFN2 test version.
        Test license to: Dow Chemical Company
        Cite GFN-xTB work as:
        S. Grimme, C. Bannwarth, P. Shushkov
        JCTC, 13 (2017) 1989-2009
        for GFN2:
        C. Bannwarth, S. Ehlert, S. Grimme
        to be published.
        sTDA-xTB:
        S. Grimme  &  C. Bannwarth, JCP 145 (2016) 054103
        in the mass-spec context additionally:
        V. Asgeirsson, C.Bauer, S. Grimme, Chem. Sci. 8 (2017) 4879
 
        with help from
        P. Shushkov, G. Brandenburg, S. Dohm, J. Pisarek,
        F. März, M. Checinski, S. Ehrlich, S. Spicher, 
        P. Pracht, E. Caldeweyher, S. Ehlert, and C. Bannwarth.
 
        usage        :
        xtb <coord_file> [options]
        where <coord_file> is a valid file of TM)
        (*coord, Bohr) or xmol (*xyz, Angstroem)
        format.

        options:
        -chrg <int>   : molecular charge
        -uhf  <int>   : # of unpaired electrons(=2*S)
        -nox          : skip second, extended part in sTDA-xTB
        -pop          : do population analysis
                      : (default for -nox)
        -mowr <real>  : cut MO write above (def.3 Eh)
        -molden       : write formatted molden file
        -parx <file>  : read parameters for sTDA-xTB
                        calc (def:~/.param_stda2.xtb)
        -parv <file>  : read parameters for vTB part in
                        sTDA-xTB (def: ~/.param_stda1.xtb)
        -xtemp <real> : el. temp for xTB (def. 0 K)
        -etemp <real> : el. temp for GFN (def. 300 K)
        -fod          : calculate the FOD and write
                        molden.input file with
                        appropriate occupations
                        for plotting. Def. T=12500 K
 
        -gfn1         : use GFN-xTB
        -gfn2         : use GFN2-xTB
        -gfn2d3       : GFN2-xTB with D3 instead of D4
        -grad         : GFNn-xTB gradient
        -acc <real>   : GFNn-xTB accuracy (def. 1.0)
        -opt [level]  : optimize at GFNn-xTB
                      : level=crude,vloose,loose,
                      :       tight,vtight
        -hess         : compute Hessian at GFNn-xTB
        -ohess        : optimize and compute Hessian
        -omd          : optimize and do MD
        -siman        : conformational search
        -screen       : opt. loop over ensemble
        -gmd          : annealed MD for GMD procedure
        -modef        : vib mode following
        -gbsa [string1] [string2]
                        use GBSA implicit solvent
                        for solvent [string1] and
                        solvation state [string2]=
                        reference, bar1M (default=1M)
        additional GFN/opt/MD/siman options read from
        $XTBHOME/.xtbrc or $set in coordinate file
 
       spin and charge state information can be on:
       <.CHRG> (charge) and <.UHF> (=nalpha-nbeta)
       -uhf and -chrg override the file info.
       useful machine settings:
       setenv MKL_NUM_THREADS <NCORE_ON_YOUR_MACHINE>
       setenv OMP_STACKSIZE 500m
       limit stacksize unlimited
 
       total energies in Eh, gaps/HL energies in eV
       please read REVISION and HOWTO files carefully
          72  days left until this code expires
 =============================
  # OMP threads =           2
 =============================
 
 xtbhome directory:/home/ua25450/dftb/
 
 argument            1 :-ohess
 
 name of molecule           :
 comment line               :
 number of atoms            :     7
 number of electrons        :    24
 charge                     :  0
 spin                       : 0.0
 first test random number   :  0.3870
 
 
 -----------------------------------------
  G F N (Geometry, Frequency, Non-covalent)
        parametrization, gfnver=           3
     D4 dispersion model
 /home/ua25450/dftb/.param_gfn2.xtb
 -----------------------------------------
      method parameters     
 k(s)        :  1.8500
 k(p)        :  2.2300
 k(d)        :  2.2300
 k(f)        :  2.0000
 kEN (H0ij)  : -2.0000
 D3 a1       :  0.5200
 D3 a2       :  5.0000
 D3 s8       :  2.7000
 D3atm       :  5.0000
 alphaj      :  2.0000
 
     -------------------------
     ! NO SOLVENT MODEL USED !
     -------------------------
 
 doing EN charges ...
 sum q :  0.8881784D-15
 point charge moment (au)
     X       Y       Z   
  -0.1077  -0.1525  -0.2642  total (Debye):    0.822
 
            Z     q(EN)     CN     RAES       Cart. coordinates
     1  C   4.0   -0.09    4.08    3.77     2.97774     1.66865    -0.25473
     2  H   1.0    0.05    1.00    1.43     3.63202    -0.27974    -0.22666
     3  H   1.0    0.05    1.00    1.43     3.63145     2.66739    -1.92803
     4  H   1.0    0.05    1.00    1.43     0.91734     1.68636    -0.22250
     5  N   5.0    0.05    3.02    1.93     3.88841     2.97886     2.01498
     6  O   6.0   -0.05    1.15    1.80     4.21789     5.22748     1.85638
     7  O   6.0   -0.05    1.15    1.80     4.21256     1.71809     3.88446
 
  Z AO/shell   Hii/eV     exponent
  1     Wed Apr 25 08:07:45 CEST 2018   EN: 2.200 GM2: 0.406  GM3: 0.0800  RAES: 1.40
     1s    -10.707211    1.230000
  6     Wed Apr 25 08:07:45 CEST 2018   EN: 2.550 GM2: 0.538  GM3: 0.1500  RAES: 3.00
     2s    -13.970922    2.096432
     2p    -10.063292    1.800000
  7     Wed Apr 25 08:07:45 CEST 2018   EN: 3.040 GM2: 0.461  GM3:-0.0640  RAES: 1.90
     2s    -16.686243    2.339881
     2p    -12.523956    2.014332
  8     Wed Apr 25 08:07:45 CEST 2018   EN: 3.440 GM2: 0.452  GM3:-0.0517  RAES: 1.80
     2s    -20.229985    2.439742
     2p    -15.503117    2.137023
 
Refinement of some symmetry elements was terminated before convergence was reached.
Some symmetry elements may remain unidentified.
Molecule has the following symmetry elements: (sigma) 
It seems to be the Cs point group
cs  symmetry found (for desy threshold:  0.10E+00) used in thermo
 no old-style atom pair restraing (fixing) potential
 
             =======================================
             |                                     |
             |        S C C  calculation           |
             |                                     |
             =======================================
 #proc     :            2
 Ncao      :           19
 Nao       :           19
 Nel       :           24
 T(el)     :   300.0
 intcut    :    25.0
 scfconv   :  0.100E-05
   qconv   :  0.100E-03
 intneglect:  0.100E-07
 broydamp  :      0.400
 Nshell    :           11
  q data taken from xtbrestart
  CAMM data taken from xtbrestart
 iter      E             dE          RMSdq      gap      omega  full diag
   1    -14.7215064 -0.147215E+02  0.980E-07    3.81       0.0  T
   2    -14.7215064 -0.355271E-14  0.608E-07    3.81   62193.2  T
   3    -14.7215064  0.532907E-14  0.307E-07    3.81  100000.0  T
speedup  1.00
cpu  time for SCC    0.00 s
wall time for SCC    0.00 s

          eigenvalues
 #    :           1          2          3          4          5          6          7          8
 occ. :        2.000      2.000      2.000      2.000      2.000      2.000      2.000      2.000
 eps  :       -21.445    -20.873    -19.439    -18.016    -17.307    -16.559    -16.330    -14.446
 #    :           9         10         11         12         13         14         15         16
 occ. :        2.000      2.000      2.000      2.000      0.000      0.000      0.000      0.000
 eps  :       -14.394    -13.165    -12.616    -12.328     -8.520     -0.725      2.987      4.238
 #    :          17         18         19
 occ. :        0.000      0.000      0.000
 eps  :         4.454      6.438     12.244
 

   #   Z            q   n(s)   n(p)   n(d)      C6AA      α(0)    relVol
   1   6 C     -0.131  1.059  3.072  0.000    23.346     6.932     0.561
   2   1 H      0.102  0.898  0.000  0.000     1.744     2.065     0.409
   3   1 H      0.102  0.898  0.000  0.000     1.744     2.065     0.409
   4   1 H      0.106  0.894  0.000  0.000     1.705     2.042     0.404
   5   7 N      0.567  1.142  3.291  0.000    13.100     5.378     0.713
   6   8 O     -0.373  1.768  4.605  0.000    21.181     6.178     1.189
   7   8 O     -0.373  1.768  4.605  0.000    21.180     6.178     1.189

 Mol. C6AA /au*bohr^6 :        464.314326
 Mol. C8AA /au*bohr^6 :       9573.151958
 Mol. a(0) /au        :         30.837221

 
 Wiberg/Mayer (AO) data. WBOs > 0.1 written file <wbo>
 largest (>0.05) Wiberg bond orders for each atom
           total WBO             WBO to atom ...
     1  C   3.960    H    3 0.974    H    2 0.974    H    4 0.951    N    5 0.944    O    7 0.059    O    6 0.059
     2  H   0.990    C    1 0.974
     3  H   0.990    C    1 0.974
     4  H   0.989    C    1 0.951
     5  N   3.919    O    7 1.484    O    6 1.484    C    1 0.944
     6  O   1.951    N    5 1.484    O    7 0.377    C    1 0.059
     7  O   1.951    N    5 1.484    O    6 0.377    C    1 0.059
 
molecular dipole:
                 x           y           z       tot (Debye)
 q only:       -0.493      -0.698      -1.209
   full:        1.608      -0.755      -1.308       4.086
molecular quadrupole (traceless):
                xx          xy          yy          xz          yz          zz
 q only:        1.846      -5.943      -1.945      -7.956      -4.814       0.099
  q+dip:        3.282      -6.812      -2.909      -9.180      -4.923      -0.373
   full:        3.528      -6.876      -3.045      -9.290      -4.899      -0.483
 SCC converged in            3  cycles
 
SCC energy    :     -14.7215064
rep           :       0.0986641
ES            :       0.0484873
AES           :       0.0090426
AXC           :      -0.0020823
disp          :      -0.0023889
XB            :       0.0000000
fix           :       0.0000000
total E       :     -14.6228421
atomizationE  :       1.7572574     1102.70
(atE without considerung molecular charge,
 total energy contains solvation terms)
H-L gap (eV)  :          3.8082
 
             =======================================
             |                                     |
             |    Approximate Normal Coordinate    |
             |   Rational Function Optimization    |
             |                                     |
             =======================================
Ref. for RF algo: F.Eckert, P.Pulay, H.-J.Werner
                  J.Comput.Chem. 18 (1997) 1473.
ANC idea implemented by S. Grimme in the 2000ers (unpublished)
restraining potential by S. Ehrlich.
dumping coords to <xtbopt.coord> and <xtbopt.log
 optlevel               1
 Maxcycle             200
 Maxmicro              20
 Econv         1.000000000000000E-006
 Gconv         8.000000000000000E-004
 Maxdispl       1.00000000000000     
 Hlow          1.000000000000000E-002
 S6             20.0000000000000     
 Nvar               15

generating ANC from read Hessian ...
 Shifting diagonal of input Hessian by   9.865648291948916E-003
 Lowest  eigenvalues of input Hessian
   -0.000000   -0.000000   -0.000000    0.000000    0.000000    0.000000
    0.010000    0.046145    0.054145    0.095304    0.101032    0.111628
    0.198564    0.243644    0.305048    0.403716    0.589799    0.770676
 Highest eigenvalues
    0.403716    0.589799    0.770676    0.835104    1.086601    1.626298
 
cpu  time for ANC gen    0.01 s
wall time for ANC gen    0.01 s
................................................................................
.............................. CYCLE    1 ......................................
................................................................................
  q data taken from xtbrestart
  CAMM data taken from xtbrestart
   1    -14.7215064 -0.147215E+02  0.736E-08    3.81       0.0  T
   2    -14.7215064  0.710543E-14  0.447E-08    3.81  100000.0  T
   3    -14.7215064 -0.106581E-13  0.130E-08    3.81  100000.0  T
speedup  1.00
cpu  time for SCC    0.00 s
wall time for SCC    0.00 s
speedup  1.00
cpu  time for grad    0.00 s
wall time for grad    0.00 s
 E :    -14.62284210  G :  0.000332    pred/act E change:  0.000D+00 -0.677D-11
Maxdispl :   0.0004   ||displ|| :   0.0007   Lambda : -0.183D-06
Largest |displ|/coords:  0.0004 (  11)  0.0004 (   6)  0.0003 (   8)
ancopt converged in          1 cycles
total energy gain (kcal):      0.0000
================
 final structure:
================
     7
        -14.62284210
C           1.57575292742618    0.88301112991710   -0.13479960136076
H           1.92198370662914   -0.14803387697748   -0.11994373712345
H           1.92168160923351    1.41152007272531   -1.02026828020733
H           0.48543720404635    0.89238431670881   -0.11774009781267
N           2.05766003645183    1.57634703094134    1.06627967524532
O           2.23201176243803    2.76626138874192    0.98235360451977
O           2.22919223377497    0.90917621794300    2.05556723673912
 
 Bond Distances (Angstroems)
 ---------------------------
C1-H2=1.0877         C1-H3=1.0877         C1-H4=1.0905         C1-N5=1.4682         H2-C1=1.0877         H3-C1=1.0877         
H4-C1=1.0905         N5-C1=1.4682         N5-O6=1.2055         N5-O7=1.2055         O6-N5=1.2055         O7-N5=1.2055         
 C  H  Rav=1.0886 sigma=0.0013  Rmin=1.0877  Rmax=1.0905     3
 N  C  Rav=1.4682 sigma=0.0000  Rmin=1.4682  Rmax=1.4682     1
 O  N  Rav=1.2055 sigma=0.0000  Rmin=1.2055  Rmax=1.2055     2
 
 selected bond angles (degree)
 --------------------
H3-C1-H2=111.74                H4-C1-H2=109.04                H4-C1-H3=109.06                N5-C1-H2=109.39                
N5-C1-H3=109.40                N5-C1-H4=108.14                O6-N5-C1=117.17                O7-N5-C1=117.17                
O7-N5-O6=125.65                
 
 selected dihedral angles (degree)
 ---------------------------------
O6-N5-C1-H2=151.70            O6-N5-C1-H3= 29.00            O6-N5-C1-H4=270.34            O7-N5-C1-H2=330.83            
O7-N5-C1-H3=208.12            O7-N5-C1-H4= 89.46            
 
             =======================================
             |                                     |
             |        S C C  calculation           |
             |                                     |
             =======================================
 #proc     :            2
 Ncao      :           19
 Nao       :           19
 Nel       :           24
 T(el)     :   300.0
 intcut    :    25.0
 scfconv   :  0.100E-05
   qconv   :  0.100E-03
 intneglect:  0.100E-07
 broydamp  :      0.400
 Nshell    :           11
 iter      E             dE          RMSdq      gap      omega  full diag
   1    -14.7215064 -0.147215E+02  0.445E-09    3.81       0.0  T
   2    -14.7215064  0.106581E-13  0.308E-09    3.81  100000.0  T
   3    -14.7215064 -0.177636E-14  0.959E-10    3.81  100000.0  T
speedup  1.00
cpu  time for SCC    0.00 s
wall time for SCC    0.00 s

          eigenvalues
 #    :           1          2          3          4          5          6          7          8
 occ. :        2.000      2.000      2.000      2.000      2.000      2.000      2.000      2.000
 eps  :       -21.445    -20.873    -19.439    -18.016    -17.307    -16.559    -16.330    -14.446
 #    :           9         10         11         12         13         14         15         16
 occ. :        2.000      2.000      2.000      2.000      0.000      0.000      0.000      0.000
 eps  :       -14.394    -13.165    -12.616    -12.328     -8.520     -0.725      2.987      4.238
 #    :          17         18         19
 occ. :        0.000      0.000      0.000
 eps  :         4.454      6.438     12.244
 

   #   Z            q   n(s)   n(p)   n(d)      C6AA      α(0)    relVol
   1   6 C     -0.131  1.059  3.072  0.000    23.346     6.932     0.561
   2   1 H      0.102  0.898  0.000  0.000     1.744     2.065     0.409
   3   1 H      0.102  0.898  0.000  0.000     1.744     2.065     0.409
   4   1 H      0.106  0.894  0.000  0.000     1.705     2.042     0.404
   5   7 N      0.567  1.142  3.291  0.000    13.100     5.378     0.713
   6   8 O     -0.373  1.768  4.605  0.000    21.181     6.178     1.189
   7   8 O     -0.373  1.768  4.605  0.000    21.180     6.178     1.189

 Mol. C6AA /au*bohr^6 :        464.314326
 Mol. C8AA /au*bohr^6 :       9573.151958
 Mol. a(0) /au        :         30.837221

 
 Wiberg/Mayer (AO) data. WBOs > 0.1 written file <wbo>
 largest (>0.05) Wiberg bond orders for each atom
           total WBO             WBO to atom ...
     1  C   3.960    H    3 0.974    H    2 0.974    H    4 0.951    N    5 0.944    O    7 0.059    O    6 0.059
     2  H   0.990    C    1 0.974
     3  H   0.990    C    1 0.974
     4  H   0.989    C    1 0.951
     5  N   3.919    O    7 1.484    O    6 1.484    C    1 0.944
     6  O   1.951    N    5 1.484    O    7 0.377    C    1 0.059
     7  O   1.951    N    5 1.484    O    6 0.377    C    1 0.059
 
molecular dipole:
                 x           y           z       tot (Debye)
 q only:       -0.493      -0.698      -1.209
   full:       -0.551      -0.755      -1.308       4.086
molecular quadrupole (traceless):
                xx          xy          yy          xz          yz          zz
 q only:        1.846      -5.943      -1.945      -7.956      -4.814       0.099
  q+dip:        3.282      -6.812      -2.909      -9.180      -4.923      -0.373
   full:        3.528      -6.876      -3.045      -9.290      -4.899      -0.483
 SCC converged in            3  cycles
 
SCC energy    :     -14.7215064
rep           :       0.0986641
ES            :       0.0484873
AES           :       0.0090426
AXC           :      -0.0020823
disp          :      -0.0023889
XB            :       0.0000000
fix           :       0.0000000
total E       :     -14.6228421
atomizationE  :       1.7572574     1102.70
(atE without considerung molecular charge,
 total energy contains solvation terms)
H-L gap (eV)  :          3.8082
 !!!!!!!!!!!!!!!!!!!!!!!!!!!!!!!!!!!
 ! Note: the input coordinates are !
 ! NOT overwritten. The optimized  !
 ! ones are on file <xtbopt.coord> !
 ! (or on <xtbopt.xyz> if it was a !
 ! xyz file)                       !
 !!!!!!!!!!!!!!!!!!!!!!!!!!!!!!!!!!!
 
Refinement of some symmetry elements was terminated before convergence was reached.
Some symmetry elements may remain unidentified.
Molecule has the following symmetry elements: (sigma) 
It seems to be the Cs point group
cs  symmetry found (for desy threshold:  0.10E+00) used in thermo
  q data taken from xtbrestart
  CAMM data taken from xtbrestart
 
             =======================================
             |                                     |
             |         Numerical Hessian           |
             |                                     |
             =======================================
step length          :   0.00500
SCC accuracy         :   0.30000
Hessian scale factor :   1.00000
frozen atoms in %    :   0.00000    0
RMS gradient         :   0.00033
estimated CPU  time      0.00 min
estimated wall time      0.00 min
 
 writing file <hessian>.
 
 projected vibrational frequencies (cm-1)
eig.   :       -0.00    -0.00    -0.00     0.00     0.00     0.00
eig.   :       40.07   477.91   610.15   672.22   933.54  1059.48
eig.   :     1088.73  1354.04  1375.33  1418.56  1423.14  1710.63
eig.   :     3022.32  3050.84  3064.02
 reduced masses (amu)
   1: 11.95   2: 12.07   3: 13.57   4: 14.62   5: 13.00   6: 15.26   7:  2.22   8: 10.93
   9: 11.13  10: 13.59  11: 13.32  12:  5.77  13:  5.01  14:  5.69  15: 11.13  16:  2.60
  17:  1.57  18: 14.52  19:  1.77  20:  1.41  21:  2.00
 IR intensities (amu)
   1:  0.19   2:  0.14   3:  0.10   4:  0.20   5:  0.25   6:  0.22   7:  0.01   8:  0.14
   9:  0.65  10:  0.64  11:  0.96  12:  0.40  13:  0.22  14:  1.17  15:  1.45  16:  0.50
  17:  0.23  18:  2.79  19:  0.04  20:  0.02  21:  0.05
 output can be read by thermo (or use thermo option).
 writing <g98.out> molden fake output.
 recommended (thermochemical) frequency scaling factor: 1.0
                    ==================
                    thermo calculation
                    ==================
Nvib :   15 Nimag : 0  symmetry :   cs  rot number :  1  scale factor : 1.00 sthr :  50.
omega= 40.07     Gvib=    -1.567     Grot=    -1.120     Gused=    -1.251
 
   temp. (K)  partition function   enthalpy   heat capacity  entropy
                                   cal/mol     cal/K/mol   cal/K/mol   J/K/mol
 298.15  VIB   7.13                  948.423      6.708      6.024
         ROT  0.302E+05              888.752      2.981     23.480
         INT  0.215E+06             1837.176      9.689     29.504
         TR   0.461E+27             1481.254      4.968     38.229
         TOT                        3318.4297    14.6568    67.7328   283.3931
                     Eh         kcal/mol          kJ/mol 
ZPVE            0.485272E-01     30.4513         127.408    
H(0)-H(T)+PV    0.528825E-02     3.31843         13.8843    
H(T)            0.538155E-01     33.7697         141.292    
T*S             0.321821E-01     20.1945         84.4937    
G(T)            0.216334E-01     13.5752         56.7983    
    -14.60120870  <=== TOTAL FREE ENERGY in Eh incl. el.,ZPVE,RRHO,solv. parts
 
Eat (element increment corrected) /kcal :   665.074
         -71.990  <=== HOF(298)/kcal, to be compared to exptl. data
 
 normal mode %tage of torsion character
   1:  0.00   2:  0.00   3:  0.00   4:  0.00   5:  0.00   6:  0.00   7:  0.99   8:  0.00
   9:  0.98  10:  0.27  11:  0.22  12:  0.73  13:  0.09  14:  0.53  15:  0.13  16:  0.17
  17:  0.15  18:  0.00  19:  0.18  20:  0.03  21:  0.02
 recommended # of modes for mode following           4
 
speedup  0.95
cpu  time for all    0.27 s
wall time for all    0.28 s
