 Entering Gaussian System
 *********************************************
 Gaussian 98:
 frequency output generated by the xtb code
 *********************************************
                         Standard orientation:
 --------------------------------------------------------------------
  Center     Atomic     Atomic              Coordinates (Angstroms)
  Number     Number      Type              X           Y           Z
 --------------------------------------------------------------------
    1          6             0        1.575757    0.883003   -0.134807
    2          1             0        1.921982   -0.148044   -0.119950
    3          1             0        1.921685    1.411508   -1.020277
    4          1             0        0.485441    0.892382   -0.117743
    5          7             0        2.057672    1.576338    1.066270
    6          8             0        2.232030    2.766251    0.982341
    7          8             0        2.229204    0.909168    2.055558
 --------------------------------------------------------------------
     1 basis functions        1 primitive gaussians
     1 alpha electrons        1 beta electrons
 
 Harmonic frequencies (cm**-1), IR intensities (KM/Mole),
 Raman scattering activities (A**4/amu), Raman depolarization ratios,
 reduced masses (AMU), force constants (mDyne/A) and normal coordinates:
                      1                      2                      3
                        a                      a                      a 
 Frequencies --    40.0686               477.9126               610.1519
 Red. masses --     2.2225                10.9285                11.1273
 Frc consts  --     0.0000                 0.0000                 0.0000
 IR Inten    --     0.0117                 0.1413                 0.6482
 Raman Activ --     0.0000                 0.0000                 0.0000
 Depolar     --     0.0000                 0.0000                 0.0000
 Atom AN      X      Y      Z        X      Y      Z        X      Y      Z
   1   6    -0.00  -0.00   0.00    -0.00  -0.33   0.19     0.04   0.05   0.09
   2   1     0.45   0.15  -0.26     0.06  -0.07   0.34    -0.18  -0.05  -0.07
   3   1    -0.45   0.29   0.00    -0.06  -0.33  -0.10    -0.18  -0.03  -0.07
   4   1     0.00  -0.51   0.29    -0.00  -0.17   0.10     0.01   0.21   0.36
   5   7    -0.00   0.01  -0.01     0.00   0.28  -0.16     0.71  -0.10  -0.18
   6   8     0.20  -0.02  -0.04     0.15   0.31   0.34    -0.30   0.06  -0.01
   7   8    -0.20   0.03   0.04    -0.15  -0.14  -0.44    -0.30  -0.04   0.04
                      4                      5                      6
                        a                      a                      a 
 Frequencies --   672.2171               933.5422              1059.4779
 Red. masses --    13.5929                13.3178                 5.7719
 Frc consts  --     0.0000                 0.0000                 0.0000
 IR Inten    --     0.6437                 0.9635                 0.3988
 Raman Activ --     0.0000                 0.0000                 0.0000
 Depolar     --     0.0000                 0.0000                 0.0000
 Atom AN      X      Y      Z        X      Y      Z        X      Y      Z
   1   6     0.19   0.26   0.44     0.20   0.25   0.44     0.39  -0.09  -0.15
   2   1     0.08   0.08   0.14     0.03   0.06   0.13    -0.27  -0.14  -0.16
   3   1     0.08   0.08   0.14     0.03   0.09   0.12    -0.27  -0.06  -0.20
   4   1     0.05   0.04   0.07     0.05   0.07   0.12     0.10   0.30   0.52
   5   7    -0.08   0.12   0.21    -0.19  -0.23  -0.41    -0.41   0.08   0.14
   6   8    -0.07   0.11  -0.51    -0.01  -0.40   0.17     0.08  -0.01  -0.02
   7   8    -0.07  -0.50  -0.16    -0.01   0.35  -0.26     0.08  -0.01  -0.02
                      7                      8                      9
                        a                      a                      a 
 Frequencies --  1088.7338              1354.0368              1375.3271
 Red. masses --     5.0055                 5.6860                11.1324
 Frc consts  --     0.0000                 0.0000                 0.0000
 IR Inten    --     0.2158                 1.1659                 1.4527
 Raman Activ --     0.0000                 0.0000                 0.0000
 Depolar     --     0.0000                 0.0000                 0.0000
 Atom AN      X      Y      Z        X      Y      Z        X      Y      Z
   1   6    -0.00  -0.43   0.25    -0.18  -0.18  -0.30    -0.00   0.07   0.12
   2   1    -0.14  -0.16  -0.52     0.30   0.09   0.32    -0.04  -0.00  -0.34
   3   1     0.14   0.37   0.40     0.30   0.23   0.24    -0.04  -0.29  -0.17
   4   1    -0.00   0.15  -0.09    -0.01   0.24   0.42     0.00  -0.10  -0.17
   5   7    -0.00   0.05  -0.03     0.09   0.15   0.25     0.18   0.27   0.48
   6   8     0.05   0.19   0.06    -0.04  -0.24  -0.01    -0.07  -0.42  -0.01
   7   8    -0.05   0.04  -0.19    -0.04   0.11  -0.21    -0.07   0.21  -0.37
                     10                     11                     12
                        a                      a                      a 
 Frequencies --  1418.5571              1423.1409              1710.6341
 Red. masses --     2.6019                 1.5668                14.5219
 Frc consts  --     0.0000                 0.0000                 0.0000
 IR Inten    --     0.4951                 0.2307                 2.7898
 Raman Activ --     0.0000                 0.0000                 0.0000
 Depolar     --     0.0000                 0.0000                 0.0000
 Atom AN      X      Y      Z        X      Y      Z        X      Y      Z
   1   6    -0.18   0.06   0.11    -0.00  -0.19   0.11     0.00   0.04  -0.02
   2   1     0.40   0.15  -0.45     0.45   0.13   0.05     0.03   0.01   0.06
   3   1     0.41  -0.46  -0.09    -0.44   0.01  -0.14    -0.03  -0.05  -0.04
   4   1    -0.01   0.16   0.29    -0.00   0.62  -0.35    -0.00   0.00  -0.00
   5   7    -0.11  -0.09  -0.15    -0.00   0.01  -0.01    -0.00  -0.70   0.41
   6   8     0.03   0.13   0.00     0.00  -0.02  -0.00     0.06   0.40  -0.03
   7   8     0.03  -0.06   0.11    -0.00  -0.01   0.02    -0.06   0.23  -0.33
                     13                     14                     15
                        a                      a                      a 
 Frequencies --  3022.3242              3050.8362              3064.0187
 Red. masses --     1.7669                 1.4135                 1.9999
 Frc consts  --     0.0000                 0.0000                 0.0000
 IR Inten    --     0.0420                 0.0203                 0.0479
 Raman Activ --     0.0000                 0.0000                 0.0000
 Depolar     --     0.0000                 0.0000                 0.0000
 Atom AN      X      Y      Z        X      Y      Z        X      Y      Z
   1   6     0.26  -0.01  -0.02    -0.10   0.09   0.14    -0.00  -0.26   0.15
   2   1     0.02   0.05  -0.01     0.22  -0.67   0.02    -0.22   0.62   0.00
   3   1     0.02  -0.03   0.03     0.21   0.34  -0.55     0.23   0.32  -0.56
   4   1    -0.96   0.01   0.02    -0.08   0.01   0.01    -0.00  -0.03   0.02
   5   7     0.01   0.00   0.01     0.00   0.01   0.01    -0.00  -0.01   0.01
   6   8    -0.00  -0.00  -0.00    -0.00  -0.00   0.00     0.00   0.00  -0.00
   7   8    -0.00   0.00  -0.00    -0.00   0.00  -0.00    -0.00   0.00  -0.00
