 Entering Gaussian System
 *********************************************
 Gaussian 98:
 frequency output generated by the xtb code
 *********************************************
                         Standard orientation:
 --------------------------------------------------------------------
  Center     Atomic     Atomic              Coordinates (Angstroms)
  Number     Number      Type              X           Y           Z
 --------------------------------------------------------------------
    1          6             0        1.575753    0.883011   -0.134800
    2          1             0        1.921984   -0.148034   -0.119944
    3          1             0        1.921682    1.411520   -1.020268
    4          1             0        0.485437    0.892384   -0.117740
    5          7             0        2.057660    1.576347    1.066280
    6          8             0        2.232012    2.766261    0.982354
    7          8             0        2.229192    0.909176    2.055567
 --------------------------------------------------------------------
     1 basis functions        1 primitive gaussians
     1 alpha electrons        1 beta electrons
 
 Harmonic frequencies (cm**-1), IR intensities (KM/Mole),
 Raman scattering activities (A**4/amu), Raman depolarization ratios,
 reduced masses (AMU), force constants (mDyne/A) and normal coordinates:
                      1                      2                      3
                        a                      a                      a 
 Frequencies --    40.0686               610.1519               477.9126
 Red. masses --    99.0000                99.0000                99.0000
 Frc consts  --    99.0000                99.0000                99.0000
 IR Inten    --    99.0000                99.0000                99.0000
 Raman Activ --     0.0000                 0.0000                 0.0000
 Depolar     --     0.0000                 0.0000                 0.0000
 Atom AN      X      Y      Z        X      Y      Z        X      Y      Z
   1   6    -0.00  -0.00   0.00     0.04   0.05   0.09    -0.00  -0.33   0.19
   2   1     0.45   0.15  -0.26    -0.18  -0.05  -0.07     0.06  -0.07   0.34
   3   1    -0.45   0.29   0.00    -0.18  -0.03  -0.07    -0.06  -0.33  -0.10
   4   1     0.00  -0.51   0.29     0.01   0.21   0.36    -0.00  -0.17   0.10
   5   7    -0.00   0.01  -0.01     0.71  -0.10  -0.18     0.00   0.28  -0.16
   6   8     0.20  -0.02  -0.04    -0.30   0.06  -0.01     0.15   0.31   0.34
   7   8    -0.20   0.03   0.04    -0.30  -0.04   0.04    -0.15  -0.14  -0.44
                      4                      5                      6
                        a                      a                      a 
 Frequencies --  1059.4779               672.2171               933.5422
 Red. masses --    99.0000                99.0000                99.0000
 Frc consts  --    99.0000                99.0000                99.0000
 IR Inten    --    99.0000                99.0000                99.0000
 Raman Activ --     0.0000                 0.0000                 0.0000
 Depolar     --     0.0000                 0.0000                 0.0000
 Atom AN      X      Y      Z        X      Y      Z        X      Y      Z
   1   6     0.39  -0.09  -0.15     0.19   0.26   0.44     0.20   0.25   0.44
   2   1    -0.27  -0.14  -0.16     0.08   0.08   0.14     0.03   0.06   0.13
   3   1    -0.27  -0.06  -0.20     0.08   0.08   0.14     0.03   0.09   0.12
   4   1     0.10   0.30   0.52     0.05   0.04   0.07     0.05   0.07   0.12
   5   7    -0.41   0.08   0.14    -0.08   0.12   0.21    -0.19  -0.23  -0.41
   6   8     0.08  -0.01  -0.02    -0.07   0.11  -0.51    -0.01  -0.40   0.17
   7   8     0.08  -0.01  -0.02    -0.07  -0.50  -0.16    -0.01   0.35  -0.26
                      7                      8                      9
                        a                      a                      a 
 Frequencies --  1354.0368              1088.7338              1375.3271
 Red. masses --    99.0000                99.0000                99.0000
 Frc consts  --    99.0000                99.0000                99.0000
 IR Inten    --    99.0000                99.0000                99.0000
 Raman Activ --     0.0000                 0.0000                 0.0000
 Depolar     --     0.0000                 0.0000                 0.0000
 Atom AN      X      Y      Z        X      Y      Z        X      Y      Z
   1   6    -0.18  -0.18  -0.30    -0.00  -0.43   0.25    -0.00   0.07   0.12
   2   1     0.30   0.09   0.32    -0.14  -0.16  -0.52    -0.04  -0.00  -0.34
   3   1     0.30   0.23   0.24     0.14   0.37   0.40    -0.04  -0.29  -0.17
   4   1    -0.01   0.24   0.42    -0.00   0.15  -0.09     0.00  -0.10  -0.17
   5   7     0.09   0.15   0.25    -0.00   0.05  -0.03     0.18   0.27   0.48
   6   8    -0.04  -0.24  -0.01     0.05   0.19   0.06    -0.07  -0.42  -0.01
   7   8    -0.04   0.11  -0.21    -0.05   0.04  -0.19    -0.07   0.21  -0.37
                     10                     11                     12
                        a                      a                      a 
 Frequencies --  1418.5571              1423.1409              1710.6341
 Red. masses --    99.0000                99.0000                99.0000
 Frc consts  --    99.0000                99.0000                99.0000
 IR Inten    --    99.0000                99.0000                99.0000
 Raman Activ --     0.0000                 0.0000                 0.0000
 Depolar     --     0.0000                 0.0000                 0.0000
 Atom AN      X      Y      Z        X      Y      Z        X      Y      Z
   1   6    -0.18   0.06   0.11    -0.00  -0.19   0.11     0.00   0.04  -0.02
   2   1     0.40   0.15  -0.45     0.45   0.13   0.05     0.03   0.01   0.06
   3   1     0.41  -0.46  -0.09    -0.44   0.01  -0.14    -0.03  -0.05  -0.04
   4   1    -0.01   0.16   0.29    -0.00   0.62  -0.35    -0.00   0.00  -0.00
   5   7    -0.11  -0.09  -0.15    -0.00   0.01  -0.01    -0.00  -0.70   0.41
   6   8     0.03   0.13   0.00     0.00  -0.02  -0.00     0.06   0.40  -0.03
   7   8     0.03  -0.06   0.11    -0.00  -0.01   0.02    -0.06   0.23  -0.33
                     13                     14                     15
                        a                      a                      a 
 Frequencies --  3022.3242              3050.8362              3064.0187
 Red. masses --    99.0000                99.0000                99.0000
 Frc consts  --    99.0000                99.0000                99.0000
 IR Inten    --    99.0000                99.0000                99.0000
 Raman Activ --     0.0000                 0.0000                 0.0000
 Depolar     --     0.0000                 0.0000                 0.0000
 Atom AN      X      Y      Z        X      Y      Z        X      Y      Z
   1   6     0.26  -0.01  -0.02    -0.10   0.09   0.14    -0.00  -0.26   0.15
   2   1     0.02   0.05  -0.01     0.22  -0.67   0.02    -0.22   0.62   0.00
   3   1     0.02  -0.03   0.03     0.21   0.34  -0.55     0.23   0.32  -0.56
   4   1    -0.96   0.01   0.02    -0.08   0.01   0.01    -0.00  -0.03   0.02
   5   7     0.01   0.00   0.01     0.00   0.01   0.01    -0.00  -0.01   0.01
   6   8    -0.00  -0.00  -0.00    -0.00  -0.00   0.00     0.00   0.00  -0.00
   7   8    -0.00   0.00  -0.00    -0.00   0.00  -0.00    -0.00   0.00  -0.00
