 
        ______________________________________
       |                                      |
       |           ==================         |
       |                 x T B                |
       |           ==================         |
       |               S. Grimme              |
       |        Universitaet Bonn, MCTC       |
       |         2015-18, Version 5.8.1       |
       |      Sun May  6 11:39:08 CEST 2018   |
       |______________________________________|
 
        This code comes without any warranty
        for non-commercial, academia use only.
        Preliminary GFN2 test version.
        Test license to: Dow Chemical Company
        Cite GFN-xTB work as:
        S. Grimme, C. Bannwarth, P. Shushkov
        JCTC, 13 (2017) 1989-2009
        for GFN2:
        C. Bannwarth, S. Ehlert, S. Grimme
        to be published.
        sTDA-xTB:
        S. Grimme  &  C. Bannwarth, JCP 145 (2016) 054103
        in the mass-spec context additionally:
        V. Asgeirsson, C.Bauer, S. Grimme, Chem. Sci. 8 (2017) 4879
 
        with help from
        P. Shushkov, G. Brandenburg, S. Dohm, J. Pisarek,
        F. März, M. Checinski, S. Ehrlich, S. Spicher, 
        P. Pracht, E. Caldeweyher, S. Ehlert, and C. Bannwarth.
 
        usage        :
        xtb <coord_file> [options]
        where <coord_file> is a valid file of TM)
        (*coord, Bohr) or xmol (*xyz, Angstroem)
        format.

        options:
        -chrg <int>   : molecular charge
        -uhf  <int>   : # of unpaired electrons(=2*S)
        -nox          : skip second, extended part in sTDA-xTB
        -pop          : do population analysis
                      : (default for -nox)
        -mowr <real>  : cut MO write above (def.3 Eh)
        -molden       : write formatted molden file
        -parx <file>  : read parameters for sTDA-xTB
                        calc (def:~/.param_stda2.xtb)
        -parv <file>  : read parameters for vTB part in
                        sTDA-xTB (def: ~/.param_stda1.xtb)
        -xtemp <real> : el. temp for xTB (def. 0 K)
        -etemp <real> : el. temp for GFN (def. 300 K)
        -fod          : calculate the FOD and write
                        molden.input file with
                        appropriate occupations
                        for plotting. Def. T=12500 K
 
        -gfn1         : use GFN-xTB
        -gfn2         : use GFN2-xTB
        -gfn2d3       : GFN2-xTB with D3 instead of D4
        -grad         : GFNn-xTB gradient
        -acc <real>   : GFNn-xTB accuracy (def. 1.0)
        -opt [level]  : optimize at GFNn-xTB
                      : level=crude,vloose,loose,
                      :       tight,vtight
        -hess         : compute Hessian at GFNn-xTB
        -ohess        : optimize and compute Hessian
        -omd          : optimize and do MD
        -siman        : conformational search
        -screen       : opt. loop over ensemble
        -gmd          : annealed MD for GMD procedure
        -modef        : vib mode following
        -gbsa [string1] [string2]
                        use GBSA implicit solvent
                        for solvent [string1] and
                        solvation state [string2]=
                        reference, bar1M (default=1M)
        additional GFN/opt/MD/siman options read from
        $XTBHOME/.xtbrc or $set in coordinate file
 
       spin and charge state information can be on:
       <.CHRG> (charge) and <.UHF> (=nalpha-nbeta)
       -uhf and -chrg override the file info.
       useful machine settings:
       setenv MKL_NUM_THREADS <NCORE_ON_YOUR_MACHINE>
       setenv OMP_STACKSIZE 500m
       limit stacksize unlimited
 
       total energies in Eh, gaps/HL energies in eV
       please read REVISION and HOWTO files carefully
         143  days left until this code expires
 =============================
  # OMP threads =           2
 =============================
 
 xtbhome directory:/home/ua25450/dftb/
 
 argument            1 :-ohess
 argument            2 :-gbsa
 argument            3 :h2o
 
 name of molecule           :
 comment line               :
 number of atoms            :    15
 number of electrons        :    32
 charge                     :  0
 spin                       : 0.0
 first test random number   :  0.1148
 
 
 -----------------------------------------
  G F N (Geometry, Frequency, Non-covalent)
        parametrization, gfnver=           3
     D4 dispersion model
 /home/ua25450/dftb/.param_gfn2.xtb
 -----------------------------------------
      method parameters     
 k(s)        :  1.8500
 k(p)        :  2.2300
 k(d)        :  2.2300
 k(f)        :  2.0000
 kEN (H0ij)  : -2.0000
 D3 a1       :  0.5200
 D3 a2       :  5.0000
 D3 s8       :  2.7000
 D3atm       :  5.0000
 alphaj      :  2.0000
 
 Solvent             : h2o
 GBSA parameter file : /home/ua25450/dftb/.param_gbsa_h2o
 Gsolv ref. state (COSMO-RS): gsolv [1 M gas/solution]
 temperature (mdtemp)       :    298.150000000000     
 dielectric constant        :    78.5000000000000     
 rho                        :   0.998000000000000     
 mass                       :    18.0000000000000     
 surface tension            :    15.5689470637553     
 probe radius               :   0.976041290000000     
 vdW radii scaling          :    1.00000000000000     
 Gshift (Eh)                :   2.075470419022681E-003
 c1                         :    1.58079374000000     
 soset                      :   7.194512000000000E-002
 HB correction              :  T
 
 doing EN charges ...
 sum q : -0.7771561D-15
 point charge moment (au)
     X       Y       Z   
   0.1463   0.2069  -0.0557  total (Debye):    0.660
 
            Z     q(EN)     CN     RAES       Cart. coordinates
     1  C   4.0   -0.09    4.11    3.81    -6.87138     0.44580     0.01878
     2  H   1.0    0.05    1.01    1.43    -6.21449    -1.50818     0.06400
     3  H   1.0    0.05    1.01    1.43    -8.93257     0.41243     0.06342
     4  C   4.0   -0.03    4.04    3.70    -5.93217     1.77569     2.39562
     5  H   1.0    0.04    1.00    1.43    -3.85290     1.80196     2.41070
     6  H   1.0    0.04    1.00    1.43    -6.60097     3.74464     2.40971
     7  O   6.0   -0.17    2.03    1.83    -6.86198     0.46148     4.52380
     8  H   1.0    0.11    1.02    1.43    -6.27947     1.28600     6.03645
     9  C   4.0   -0.09    4.06    3.72    -5.95322     1.74442    -2.38491
    10  H   1.0    0.04    1.01    1.43    -3.88885     1.78128    -2.39642
    11  H   1.0    0.04    1.01    1.43    -6.61172     3.70127    -2.39923
    12  C   4.0   -0.13    4.02    3.65    -6.90074     0.39715    -4.74619
    13  H   1.0    0.04    1.00    1.43    -8.95531     0.37322    -4.78558
    14  H   1.0    0.04    1.00    1.43    -6.22941     1.34783    -6.44003
    15  H   1.0    0.04    1.00    1.43    -6.23212    -1.54578    -4.78336
 
  Z AO/shell   Hii/eV     exponent
  1     Wed Apr 25 08:07:45 CEST 2018   EN: 2.200 GM2: 0.406  GM3: 0.0800  RAES: 1.40
     1s    -10.707211    1.230000
  6     Wed Apr 25 08:07:45 CEST 2018   EN: 2.550 GM2: 0.538  GM3: 0.1500  RAES: 3.00
     2s    -13.970922    2.096432
     2p    -10.063292    1.800000
  8     Wed Apr 25 08:07:45 CEST 2018   EN: 3.440 GM2: 0.452  GM3:-0.0517  RAES: 1.80
     2s    -20.229985    2.439742
     2p    -15.503117    2.137023
 
Refinement of some symmetry elements was terminated before convergence was reached.
Some symmetry elements may remain unidentified.
Molecule has the following symmetry elements: (sigma) 
It seems to be the Cs point group
cs  symmetry found (for desy threshold:  0.10E+00) used in thermo
 no old-style atom pair restraing (fixing) potential
 
             =======================================
             |                                     |
             |        S C C  calculation           |
             |                                     |
             =======================================
 #proc     :            2
 Ncao      :           30
 Nao       :           30
 Nel       :           32
 T(el)     :   300.0
 intcut    :    25.0
 scfconv   :  0.100E-05
   qconv   :  0.100E-03
 intneglect:  0.100E-07
 broydamp  :      0.400
 Nshell    :           20
 iter      E             dE          RMSdq      gap      omega  full diag
   1    -17.9115934 -0.179116E+02  0.385E+00   12.22       0.0  T
   2    -17.9412511 -0.296577E-01  0.194E+00   12.20       1.0  T
   3    -17.9442919 -0.304076E-02  0.526E-01   12.08       1.0  T
   4    -17.9444293 -0.137408E-03  0.200E-01   12.11       1.0  T
   5    -17.9444780 -0.487884E-04  0.625E-02   12.15       1.0  T
   6    -17.9444840 -0.600224E-05  0.244E-02   12.16       1.1  T
   7    -17.9444844 -0.352399E-06  0.566E-03   12.16       4.6  T
   8    -17.9444845 -0.489702E-07  0.197E-03   12.16      13.1  T
   9    -17.9444845 -0.192193E-08  0.445E-04   12.16      58.0  T
  10    -17.9444845 -0.839833E-09  0.117E-04   12.16     220.0  T
speedup  1.98
cpu  time for SCC    0.02 s
wall time for SCC    0.01 s

          eigenvalues
 #    :           4          5          6          7          8          9         10         11
 occ. :        2.000      2.000      2.000      2.000      2.000      2.000      2.000      2.000
 eps  :       -15.817    -15.575    -14.961    -14.563    -14.001    -13.667    -13.186    -12.655
 #    :          12         13         14         15         16         17         18         19
 occ. :        2.000      2.000      2.000      2.000      2.000      0.000      0.000      0.000
 eps  :       -12.463    -11.934    -11.875    -11.612    -11.154      1.004      2.687      3.260
 #    :          20         21         22         23         24         25         26         27
 occ. :        0.000      0.000      0.000      0.000      0.000      0.000      0.000      0.000
 eps  :         3.415      3.953      4.369      4.512      5.057      5.058      6.393      6.604
 

   #   Z            q   n(s)   n(p)   n(d)      C6AA      α(0)    relVol
   1   6 C     -0.065  1.051  3.013  0.000    21.802     6.655     0.539
   2   1 H      0.040  0.960  0.000  0.000     2.448     2.447     0.484
   3   1 H      0.040  0.960  0.000  0.000     2.448     2.447     0.484
   4   6 C      0.085  1.038  2.877  0.000    19.514     6.353     0.514
   5   1 H      0.023  0.977  0.000  0.000     2.688     2.564     0.507
   6   1 H      0.023  0.977  0.000  0.000     2.689     2.564     0.507
   7   8 O     -0.498  1.729  4.769  0.000    23.393     6.544     1.259
   8   1 H      0.331  0.669  0.000  0.000     0.573     1.188     0.235
   9   6 C     -0.058  1.049  3.009  0.000    21.704     6.644     0.538
  10   1 H      0.035  0.965  0.000  0.000     2.508     2.476     0.490
  11   1 H      0.035  0.965  0.000  0.000     2.509     2.476     0.490
  12   6 C     -0.109  1.038  3.071  0.000    22.772     6.825     0.552
  13   1 H      0.038  0.962  0.000  0.000     2.470     2.457     0.486
  14   1 H      0.042  0.958  0.000  0.000     2.410     2.427     0.480
  15   1 H      0.038  0.962  0.000  0.000     2.470     2.457     0.486

 Mol. C6AA /au*bohr^6 :       1466.731980
 Mol. C8AA /au*bohr^6 :      30007.805780
 Mol. a(0) /au        :         56.525522

 
 Wiberg/Mayer (AO) data. WBOs > 0.1 written file <wbo>
 largest (>0.05) Wiberg bond orders for each atom
           total WBO             WBO to atom ...
     1  C   3.995    C    9 1.008    C    4 1.005    H    3 0.977    H    2 0.977
     2  H   0.998    C    1 0.977
     3  H   0.998    C    1 0.977
     4  C   3.952    C    1 1.005    O    7 0.989    H    6 0.972    H    5 0.972
     5  H   0.999    C    4 0.972
     6  H   0.999    C    4 0.972
     7  O   1.918    C    4 0.989    H    8 0.878
     8  H   0.890    O    7 0.878
     9  C   3.997    C   12 1.020    C    1 1.008    H   11 0.978    H   10 0.978
    10  H   0.999    C    9 0.978
    11  H   0.999    C    9 0.978
    12  C   3.996    C    9 1.020    H   13 0.988    H   15 0.988    H   14 0.987
    13  H   0.999    C   12 0.988
    14  H   0.998    C   12 0.987
    15  H   0.999    C   12 0.988
 
molecular dipole:
                 x           y           z       tot (Debye)
 q only:        0.326       0.462      -0.093
   full:        0.759       0.620       0.013       1.929
molecular quadrupole (traceless):
                xx          xy          yy          xz          yz          zz
 q only:       -6.188      -3.911       1.605       3.138       3.026       4.582
  q+dip:       -6.893      -6.214       2.881       3.065       4.534       4.013
   full:       -7.553      -5.722       2.570       3.013       4.463       4.984
 SCC converged in           10  cycles
 
SCC energy    :     -17.9400185
rep           :       0.2144387
ES            :       0.0327463
AES           :       0.0040236
AXC           :       0.0059788
disp          :      -0.0068919
XB            :       0.0000000
fix           :       0.0000000
Gborn         :      -0.0062854
Gsasa         :       0.0023905
Ghb           :      -0.0041868
Gshift        :       0.0020755
Gsolv         :      -0.0060063       -3.77
Etot ala COSMO:     -17.7258591
total E       :     -17.7255799
atomizationE  :       3.5334472     2217.27
(atE without considerung molecular charge,
 total energy contains solvation terms)
H-L gap (eV)  :         12.1587
 
             =======================================
             |                                     |
             |    Approximate Normal Coordinate    |
             |   Rational Function Optimization    |
             |                                     |
             =======================================
Ref. for RF algo: F.Eckert, P.Pulay, H.-J.Werner
                  J.Comput.Chem. 18 (1997) 1473.
ANC idea implemented by S. Grimme in the 2000ers (unpublished)
restraining potential by S. Ehrlich.
dumping coords to <xtbopt.coord> and <xtbopt.log
 optlevel               1
 Maxcycle             200
 Maxmicro              20
 Econv         1.000000000000000E-006
 Gconv         8.000000000000000E-004
 Maxdispl       1.00000000000000     
 Hlow          1.000000000000000E-002
 S6             20.0000000000000     
 Nvar               39

generating ANC from model Hessian ...
 Shifting diagonal of input Hessian by   6.310931231664247E-003
 Lowest  eigenvalues of input Hessian
   -0.000000   -0.000000    0.000000    0.000000    0.000000    0.000000
    0.010000    0.011925    0.012005    0.017767    0.022415    0.036363
    0.039216    0.047174    0.053387    0.059106    0.062525    0.063184
 Highest eigenvalues
    1.162821    1.197540    1.204386    1.273821    1.284180    1.502567
 
cpu  time for ANC gen    0.01 s
wall time for ANC gen    0.01 s
................................................................................
.............................. CYCLE    1 ......................................
................................................................................
  q data taken from xtbrestart
  CAMM data taken from xtbrestart
   1    -17.9444845 -0.179445E+02  0.469E-05   12.16       0.0  T
   2    -17.9444845 -0.136104E-10  0.165E-05   12.16    1562.8  T
   3    -17.9444845 -0.731859E-12  0.882E-06   12.16    2927.6  T
speedup  1.98
cpu  time for SCC    0.01 s
wall time for SCC    0.00 s
speedup  2.00
cpu  time for grad    0.01 s
wall time for grad    0.00 s
 E :    -17.72557992  G :  0.006005    pred/act E change:  0.000D+00  0.322D-09
Maxdispl :   0.0159   ||displ|| :   0.0224   Lambda : -0.442D-04
Largest |displ|/coords:  0.0159 (   7)  0.0137 (   3)  0.0034 (  39)
................................................................................
.............................. CYCLE    2 ......................................
................................................................................
   1    -17.9449719 -0.179450E+02  0.231E-02   12.13       0.0  T
   2    -17.9449721 -0.258808E-06  0.132E-02   12.13       2.0  T
   3    -17.9449722 -0.271665E-07  0.210E-03   12.13      12.3  T
   4    -17.9449722 -0.676631E-08  0.597E-04   12.13      43.2  T
speedup  2.00
cpu  time for SCC    0.01 s
wall time for SCC    0.00 s
speedup  2.00
cpu  time for grad    0.00 s
wall time for grad    0.00 s
 E :    -17.72561034  G :  0.002745    pred/act E change:  0.000D+00 -0.304D-04
Maxdispl :   0.0191   ||displ|| :   0.0233   Lambda : -0.163D-04
Largest |displ|/coords:  0.0191 (   3)  0.0097 (   7)  0.0065 (   5)
................................................................................
.............................. CYCLE    3 ......................................
................................................................................
   1    -17.9452436 -0.179452E+02  0.223E-02   12.11       0.0  T
   2    -17.9452438 -0.171208E-06  0.129E-02   12.11       2.0  T
   3    -17.9452438 -0.133786E-07  0.182E-03   12.11      14.2  T
   4    -17.9452438 -0.840640E-08  0.587E-04   12.11      44.0  T
   5    -17.9452438 -0.101244E-08  0.130E-04   12.11     199.1  T
speedup  2.00
cpu  time for SCC    0.01 s
wall time for SCC    0.00 s
speedup  2.00
cpu  time for grad    0.00 s
wall time for grad    0.00 s
 E :    -17.72561971  G :  0.000826    pred/act E change: -0.221D-04 -0.937D-05
Maxdispl :   0.0082   ||displ|| :   0.0089   Lambda : -0.157D-05
Largest |displ|/coords:  0.0082 (   3)  0.0020 (   7)  0.0018 (   2)
................................................................................
.............................. CYCLE    4 ......................................
................................................................................
   1    -17.9452468 -0.179452E+02  0.762E-03   12.10       0.0  T
   2    -17.9452469 -0.966927E-08  0.455E-03   12.10       5.7  T
   3    -17.9452469 -0.171015E-08  0.422E-04   12.10      61.1  T
   4    -17.9452469 -0.713399E-09  0.189E-04   12.10     136.5  T
speedup  2.00
cpu  time for SCC    0.01 s
wall time for SCC    0.00 s
speedup  2.00
cpu  time for grad    0.00 s
wall time for grad    0.00 s
 E :    -17.72562075  G :  0.000393    pred/act E change: -0.818D-05 -0.104D-05
Maxdispl :   0.0050   ||displ|| :   0.0058   Lambda : -0.481D-06
Largest |displ|/coords:  0.0050 (   3)  0.0022 (   2)  0.0009 (  16)
................................................................................
.............................. CYCLE    5 ......................................
................................................................................
   1    -17.9452128 -0.179452E+02  0.458E-03   12.10       0.0  T
   2    -17.9452128 -0.274538E-08  0.276E-03   12.10       9.3  T
   3    -17.9452128 -0.105068E-08  0.225E-04   12.10     114.7  T
   4    -17.9452128 -0.161798E-09  0.132E-04   12.10     195.6  T
speedup  2.00
cpu  time for SCC    0.01 s
wall time for SCC    0.00 s
speedup  2.00
cpu  time for grad    0.00 s
wall time for grad    0.00 s
 E :    -17.72562103  G :  0.000111    pred/act E change: -0.785D-06 -0.286D-06
Maxdispl :   0.0016   ||displ|| :   0.0021   Lambda : -0.531D-07
Largest |displ|/coords:  0.0016 (   2)  0.0010 (   3)  0.0005 (   1)
ancopt converged in          5 cycles
total energy gain (kcal):     -0.0258
================
 final structure:
================
    15
        -17.72562103
C          -3.63926403055013    0.23248295352890    0.00975611736260
H          -3.29190565606438   -0.80305284179881    0.03148656016334
H          -4.73135911954570    0.21393310861277    0.03026825983610
C          -3.14153320682724    0.93818316796672    1.26685548392845
H          -2.04372798011014    0.94989135331449    1.27325745284973
H          -3.49866415253130    1.97636842221115    1.27354796663135
O          -3.62779134068461    0.24859394515600    2.40446187893367
H          -3.30929867979189    0.69393048974373    3.19258731128224
C          -3.15091621931880    0.92176162447161   -1.26113539755692
H          -2.05929426303997    0.93954510054569   -1.26321910139182
H          -3.49937836050638    1.95641516544033   -1.26521352435294
C          -3.65019369868654    0.21204001494159   -2.51373272577752
H          -4.73725493796290    0.20042470658567   -2.53689297033816
H          -3.29164188011377    0.71838374004944   -3.40571276248578
H          -3.29669655426625   -0.81606951076929   -2.53509079908438
 
 Bond Distances (Angstroems)
 ---------------------------
C1-H2=1.0925         C1-H3=1.0924         C1-C4=1.5251         C1-C9=1.5260         H2-C1=1.0925         H3-C1=1.0924         
C4-C1=1.5251         C4-H5=1.0979         C4-H6=1.0979         C4-O7=1.4164         H5-C4=1.0979         H6-C4=1.0979         
O7-C4=1.4164         O7-H8=0.9596         H8-O7=0.9596         C9-C1=1.5260         C9-H10=1.0918        C9-H11=1.0918        
C9-C12=1.5238        H10-C9=1.0918        H11-C9=1.0918        C12-C9=1.5238        C12-H13=1.0874       C12-H14=1.0865       
C12-H15=1.0874       H13-C12=1.0874       H14-C12=1.0865       H15-C12=1.0874       
 C  H  Rav=1.0917 sigma=0.0040  Rmin=1.0865  Rmax=1.0979     9
 C  C  Rav=1.5250 sigma=0.0009  Rmin=1.5238  Rmax=1.5260     3
 O  H  Rav=0.9596 sigma=0.0000  Rmin=0.9596  Rmax=0.9596     1
 O  C  Rav=1.4164 sigma=0.0000  Rmin=1.4164  Rmax=1.4164     1
 
 selected bond angles (degree)
 --------------------
H3-C1-H2=107.54                C4-C1-H2=108.57                C4-C1-H3=108.58                C9-C1-H2=110.06                
C9-C1-H3=110.07                C9-C1-C4=111.90                H5-C4-C1=109.64                H6-C4-C1=109.66                
H6-C4-H5=108.37                O7-C4-C1=108.95                O7-C4-H5=110.11                O7-C4-H6=110.11                
H8-O7-C4=108.65                H10-C9-C1=109.20               H11-C9-C1=109.21               H11-C9-H10=107.68              
C12-C9-C1=111.68               C12-C9-H10=109.49              C12-C9-H11=109.50              
 
 selected dihedral angles (degree)
 ---------------------------------
H5-C4-C1-H2= 62.30            H5-C4-C1-H3=178.94            H5-C4-C1-C9=300.64            H6-C4-C1-H2=181.17            
H6-C4-C1-H3=297.81            H6-C4-C1-C9= 59.50            O7-C4-C1-H2=301.74            O7-C4-C1-H3= 58.38            
O7-C4-C1-C9=180.08            H8-O7-C4-C1=179.77            H8-O7-C4-H5= 59.50            H8-O7-C4-H6=300.07            
H10-C9-C1-H2=297.91           H10-C9-C1-H3=179.55           H10-C9-C1-C4= 58.72           H11-C9-C1-H2=180.40           
H11-C9-C1-H3= 62.04           H11-C9-C1-C4=301.21           C12-C9-C1-H2= 59.15           C12-C9-C1-H3=300.79           
C12-C9-C1-C4=179.96           
 
             =======================================
             |                                     |
             |        S C C  calculation           |
             |                                     |
             =======================================
 #proc     :            2
 Ncao      :           30
 Nao       :           30
 Nel       :           32
 T(el)     :   300.0
 intcut    :    25.0
 scfconv   :  0.100E-05
   qconv   :  0.100E-03
 intneglect:  0.100E-07
 broydamp  :      0.400
 Nshell    :           20
 iter      E             dE          RMSdq      gap      omega  full diag
   1    -17.9452128 -0.179452E+02  0.313E-05   12.10       0.0  T
   2    -17.9452128 -0.174083E-11  0.199E-05   12.10    1298.8  T
   3    -17.9452128 -0.486722E-12  0.864E-06   12.10    2989.9  T
speedup  2.00
cpu  time for SCC    0.01 s
wall time for SCC    0.00 s

          eigenvalues
 #    :           4          5          6          7          8          9         10         11
 occ. :        2.000      2.000      2.000      2.000      2.000      2.000      2.000      2.000
 eps  :       -15.816    -15.570    -14.962    -14.560    -13.999    -13.667    -13.192    -12.652
 #    :          12         13         14         15         16         17         18         19
 occ. :        2.000      2.000      2.000      2.000      2.000      0.000      0.000      0.000
 eps  :       -12.465    -11.938    -11.877    -11.616    -11.160      0.942      2.693      3.277
 #    :          20         21         22         23         24         25         26         27
 occ. :        0.000      0.000      0.000      0.000      0.000      0.000      0.000      0.000
 eps  :         3.434      3.956      4.365      4.527      5.071      5.119      6.393      6.599
 

   #   Z            q   n(s)   n(p)   n(d)      C6AA      α(0)    relVol
   1   6 C     -0.065  1.052  3.013  0.000    21.801     6.655     0.539
   2   1 H      0.039  0.961  0.000  0.000     2.455     2.450     0.485
   3   1 H      0.039  0.961  0.000  0.000     2.455     2.450     0.485
   4   6 C      0.083  1.038  2.878  0.000    19.535     6.356     0.514
   5   1 H      0.025  0.975  0.000  0.000     2.662     2.551     0.505
   6   1 H      0.025  0.975  0.000  0.000     2.663     2.552     0.505
   7   8 O     -0.500  1.731  4.769  0.000    23.439     6.550     1.260
   8   1 H      0.331  0.669  0.000  0.000     0.572     1.187     0.235
   9   6 C     -0.058  1.049  3.009  0.000    21.709     6.645     0.538
  10   1 H      0.036  0.964  0.000  0.000     2.503     2.474     0.489
  11   1 H      0.036  0.964  0.000  0.000     2.504     2.474     0.490
  12   6 C     -0.109  1.037  3.071  0.000    22.776     6.826     0.552
  13   1 H      0.038  0.962  0.000  0.000     2.469     2.457     0.486
  14   1 H      0.043  0.957  0.000  0.000     2.405     2.425     0.480
  15   1 H      0.038  0.962  0.000  0.000     2.469     2.457     0.486

 Mol. C6AA /au*bohr^6 :       1466.025047
 Mol. C8AA /au*bohr^6 :      30000.546242
 Mol. a(0) /au        :         56.509388

 
 Wiberg/Mayer (AO) data. WBOs > 0.1 written file <wbo>
 largest (>0.05) Wiberg bond orders for each atom
           total WBO             WBO to atom ...
     1  C   3.995    C    9 1.007    C    4 1.005    H    3 0.977    H    2 0.977
     2  H   0.998    C    1 0.977
     3  H   0.998    C    1 0.977
     4  C   3.952    C    1 1.005    O    7 0.987    H    5 0.972    H    6 0.972
     5  H   0.999    C    4 0.972
     6  H   0.999    C    4 0.972
     7  O   1.915    C    4 0.987    H    8 0.878
     8  H   0.890    O    7 0.878
     9  C   3.997    C   12 1.020    C    1 1.007    H   11 0.978    H   10 0.978
    10  H   0.999    C    9 0.978
    11  H   0.999    C    9 0.978
    12  C   3.996    C    9 1.020    H   13 0.988    H   15 0.988    H   14 0.987
    13  H   0.999    C   12 0.988
    14  H   0.998    C   12 0.987
    15  H   0.999    C   12 0.988
 
molecular dipole:
                 x           y           z       tot (Debye)
 q only:        0.337       0.474      -0.111
   full:        0.448       0.630      -0.006       1.966
molecular quadrupole (traceless):
                xx          xy          yy          xz          yz          zz
 q only:       -6.276      -4.000       1.770       3.388       3.074       4.506
  q+dip:       -6.953      -6.287       3.057       3.340       4.591       3.895
   full:       -7.615      -5.792       2.745       3.287       4.516       4.870
 SCC converged in            3  cycles
 
SCC energy    :     -17.9407217
rep           :       0.2151009
ES            :       0.0329888
AES           :       0.0039847
AXC           :       0.0060260
disp          :      -0.0068854
XB            :       0.0000000
fix           :       0.0000000
Gborn         :      -0.0063880
Gsasa         :       0.0024157
Ghb           :      -0.0042068
Gshift        :       0.0020755
Gsolv         :      -0.0061037       -3.83
Etot ala COSMO:     -17.7259053
total E       :     -17.7256210
atomizationE  :       3.5334883     2217.30
(atE without considerung molecular charge,
 total energy contains solvation terms)
H-L gap (eV)  :         12.1018
 !!!!!!!!!!!!!!!!!!!!!!!!!!!!!!!!!!!
 ! Note: the input coordinates are !
 ! NOT overwritten. The optimized  !
 ! ones are on file <xtbopt.coord> !
 ! (or on <xtbopt.xyz> if it was a !
 ! xyz file)                       !
 !!!!!!!!!!!!!!!!!!!!!!!!!!!!!!!!!!!
 
Refinement of some symmetry elements was terminated before convergence was reached.
Some symmetry elements may remain unidentified.
Molecule has the following symmetry elements: (sigma) 
It seems to be the Cs point group
cs  symmetry found (for desy threshold:  0.10E+00) used in thermo
  q data taken from xtbrestart
  CAMM data taken from xtbrestart
 
             =======================================
             |                                     |
             |         Numerical Hessian           |
             |                                     |
             =======================================
step length          :   0.00500
SCC accuracy         :   0.30000
Hessian scale factor :   1.00000
frozen atoms in %    :   0.00000    0
RMS gradient         :   0.00011
estimated CPU  time      0.02 min
estimated wall time      0.01 min
 
 writing file <hessian>.
 
 projected vibrational frequencies (cm-1)
eig.   :       -0.00    -0.00    -0.00     0.00     0.00     0.00
eig.   :       91.90   104.00   187.02   231.24   286.02   394.76
eig.   :      419.71   773.82   835.20   937.45   948.39  1024.16
eig.   :     1068.57  1100.70  1124.87  1158.28  1206.17  1220.50
eig.   :     1270.88  1279.63  1281.40  1353.40  1377.83  1410.62
eig.   :     1486.27  1492.41  1494.33  1496.37  1501.32  2868.03
eig.   :     2898.96  2963.37  2971.21  2980.17  2982.73  3029.46
eig.   :     3033.76  3042.30  3594.55
 reduced masses (amu)
   1: 10.15   2: 10.93   3:  9.11   4: 11.41   5: 10.22   6: 10.75   7:  9.15   8:  6.57
   9: 10.00  10:  2.13  11:  2.19  12:  9.79  13: 10.98  14:  1.74  15:  2.40  16:  5.81
  17:  2.37  18:  9.72  19:  9.92  20:  9.43  21:  7.09  22:  5.16  23:  4.04  24:  4.42
  25:  1.56  26:  2.50  27:  3.92  28:  4.54  29:  5.04  30:  3.20  31:  1.84  32:  1.93
  33:  1.80  34:  1.52  35:  1.68  36:  1.98  37:  1.42  38:  1.93  39:  2.03  40:  1.47
  41:  1.50  42:  1.96  43:  1.81  44:  1.39  45:  1.88
 IR intensities (amu)
   1:  0.47   2:  0.05   3:  0.16   4:  0.09   5:  0.20   6:  0.21   7:  0.46   8:  0.17
   9:  0.28  10:  0.04  11:  0.58  12:  0.20  13:  0.43  14:  0.01  15:  0.16  16:  0.17
  17:  0.11  18:  0.47  19:  1.14  20:  0.52  21:  0.32  22:  0.33  23:  0.39  24:  0.08
  25:  0.02  26:  0.07  27:  0.31  28:  0.16  29:  0.30  30:  0.02  31:  0.11  32:  0.10
  33:  0.05  34:  0.02  35:  0.02  36:  0.44  37:  0.36  38:  0.06  39:  0.48  40:  0.18
  41:  0.37  42:  0.31  43:  0.29  44:  0.21  45:  0.24
 output can be read by thermo (or use thermo option).
 writing <g98.out> molden fake output.
 recommended (thermochemical) frequency scaling factor: 1.0
                    ==================
                    thermo calculation
                    ==================
Nvib :   39 Nimag : 0  symmetry :   cs  rot number :  1  scale factor : 1.00 sthr :  50.
omega= 91.90     Gvib=    -1.079     Grot=    -0.876     Gused=    -1.063
omega=104.00     Gvib=    -1.007     Grot=    -0.839     Gused=    -0.999
omega=187.02     Gvib=    -0.673     Grot=    -0.666     Gused=    -0.673
omega=231.24     Gvib=    -0.557     Grot=    -0.603     Gused=    -0.557
omega=286.02     Gvib=    -0.446     Grot=    -0.540     Gused=    -0.447
 
   temp. (K)  partition function   enthalpy   heat capacity  entropy
                                   cal/mol     cal/K/mol   cal/K/mol   J/K/mol
 298.15  VIB   35.7                 2578.628     17.367     15.671
         ROT  0.103E+06              888.752      2.981     25.922
         INT  0.368E+07             3467.380     20.347     41.592
         TR   0.617E+27             1481.254      4.968     38.808
         TOT                        4948.6342    25.3156    80.4000   336.3923
                     Eh         kcal/mol          kJ/mol 
ZPVE            0.134234         84.2329         352.429    
H(0)-H(T)+PV    0.788615E-02     4.94863         20.7050    
H(T)            0.142120         89.1815         373.134    
T*S             0.382006E-01     23.9713         100.295    
G(T)            0.103919         65.2103         272.839    
    -17.62170188  <=== TOTAL FREE ENERGY in Eh incl. el.,ZPVE,RRHO,solv. parts
 
Eat (element increment corrected) /kcal :  1595.369
        -242.049  <=== HOF(298)/kcal, to be compared to exptl. data
 
 normal mode %tage of torsion character
   1:  0.00   2:  0.00   3:  0.00   4:  0.00   5:  0.00   6:  0.00   7:  0.48   8:  0.36
   9:  0.19  10:  0.86  11:  0.96  12:  0.16  13:  0.14  14:  0.79  15:  0.44  16:  0.22
  17:  0.15  18:  0.28  19:  0.06  20:  0.11  21:  0.19  22:  0.40  23:  0.11  24:  0.39
  25:  0.08  26:  0.25  27:  0.39  28:  0.20  29:  0.31  30:  0.00  31:  0.56  32:  0.38
  33:  0.41  34:  0.93  35:  0.72  36:  0.06  37:  0.01  38:  0.20  39:  0.06  40:  0.07
  41:  0.01  42:  0.06  43:  0.03  44:  0.00  45:  0.00
 recommended # of modes for mode following           4
 
speedup  0.87
cpu  time for all    1.65 s
wall time for all    1.89 s
