 Entering Gaussian System
 *********************************************
 Gaussian 98:
 frequency output generated by the xtb code
 *********************************************
                         Standard orientation:
 --------------------------------------------------------------------
  Center     Atomic     Atomic              Coordinates (Angstroms)
  Number     Number      Type              X           Y           Z
 --------------------------------------------------------------------
    1          6             0       -3.639263    0.232502    0.009768
    2          1             0       -3.291910   -0.803036    0.031499
    3          1             0       -4.731358    0.213958    0.030284
    4          6             0       -3.141524    0.938202    1.266865
    5          1             0       -2.043719    0.949904    1.273263
    6          1             0       -3.498649    1.976389    1.273557
    7          8             0       -3.627782    0.248617    2.404474
    8          1             0       -3.309284    0.693953    3.192598
    9          6             0       -3.150916    0.921776   -1.261126
   10          1             0       -2.059294    0.939554   -1.263214
   11          1             0       -3.499372    1.956431   -1.265205
   12          6             0       -3.650201    0.212055   -2.513720
   13          1             0       -4.737263    0.200445   -2.536877
   14          1             0       -3.291650    0.718395   -3.405702
   15          1             0       -3.296710   -0.816057   -2.535078
 --------------------------------------------------------------------
     1 basis functions        1 primitive gaussians
     1 alpha electrons        1 beta electrons
 
 Harmonic frequencies (cm**-1), IR intensities (KM/Mole),
 Raman scattering activities (A**4/amu), Raman depolarization ratios,
 reduced masses (AMU), force constants (mDyne/A) and normal coordinates:
                      1                      2                      3
                        a                      a                      a 
 Frequencies --    91.8987               104.0018               187.0223
 Red. masses --     9.1501                 6.5681                 9.9957
 Frc consts  --     0.0000                 0.0000                 0.0000
 IR Inten    --     0.4585                 0.1717                 0.2761
 Raman Activ --     0.0000                 0.0000                 0.0000
 Depolar     --     0.0000                 0.0000                 0.0000
 Atom AN      X      Y      Z        X      Y      Z        X      Y      Z
   1   6     0.42  -0.28   0.00     0.26  -0.18  -0.00     0.25   0.38  -0.01
   2   1     0.24  -0.04  -0.05     0.18  -0.02   0.08     0.06   0.10  -0.00
   3   1     0.12  -0.20   0.05     0.08  -0.16  -0.08     0.07   0.11  -0.00
   4   6     0.26  -0.18   0.00    -0.30   0.21   0.00     0.11   0.16   0.15
   5   1     0.08  -0.15   0.11    -0.09   0.27   0.03     0.03   0.04   0.11
   6   1     0.16  -0.02  -0.10    -0.28  -0.01  -0.03     0.03   0.04   0.12
   7   8    -0.40   0.27  -0.01     0.06  -0.04  -0.00    -0.21  -0.33  -0.27
   8   1    -0.15   0.10   0.00    -0.09   0.06  -0.00    -0.14  -0.16   0.01
   9   6    -0.07   0.06  -0.00     0.32  -0.22  -0.00     0.12   0.18  -0.15
  10   1    -0.02   0.11  -0.08     0.09  -0.20  -0.06     0.04   0.05  -0.10
  11   1    -0.11  -0.01   0.07     0.22  -0.02   0.06     0.03   0.05  -0.11
  12   6    -0.18   0.12   0.00    -0.27   0.19   0.00    -0.20  -0.29   0.23
  13   1    -0.05  -0.08   0.10    -0.08   0.25   0.04    -0.06  -0.08   0.16
  14   1    -0.19   0.12  -0.00    -0.02   0.01  -0.00    -0.13  -0.19  -0.02
  15   1     0.05   0.07  -0.09    -0.27  -0.01  -0.04    -0.06  -0.09   0.16
                      4                      5                      6
                        a                      a                      a 
 Frequencies --   231.2358               286.0232               394.7578
 Red. masses --     2.1270                 2.1905                 9.7855
 Frc consts  --     0.0000                 0.0000                 0.0000
 IR Inten    --     0.0446                 0.5844                 0.1961
 Raman Activ --     0.0000                 0.0000                 0.0000
 Depolar     --     0.0000                 0.0000                 0.0000
 Atom AN      X      Y      Z        X      Y      Z        X      Y      Z
   1   6    -0.11   0.08   0.00    -0.08   0.04   0.00    -0.13  -0.19  -0.15
   2   1    -0.12  -0.01   0.04    -0.08  -0.01  -0.01    -0.03  -0.05  -0.08
   3   1    -0.03   0.12  -0.04    -0.02   0.07   0.02    -0.04  -0.05  -0.08
   4   6    -0.08   0.05   0.00     0.08  -0.06  -0.00    -0.08  -0.12  -0.36
   5   1    -0.02   0.03  -0.02     0.03  -0.02  -0.01    -0.02  -0.03  -0.15
   6   1    -0.03   0.01   0.02     0.03  -0.02   0.01    -0.02  -0.03  -0.15
   7   8     0.03  -0.02  -0.00     0.21  -0.14   0.00     0.06   0.09  -0.32
   8   1     0.00  -0.00   0.00    -0.77   0.55  -0.00     0.03   0.05  -0.10
   9   6     0.22  -0.15  -0.00    -0.03   0.01   0.01     0.14   0.20   0.28
  10   1     0.06  -0.15   0.00    -0.01  -0.00   0.01     0.04   0.05   0.11
  11   1     0.16  -0.01  -0.00    -0.00   0.00  -0.01     0.03   0.05   0.11
  12   6    -0.04   0.02   0.00     0.01   0.01  -0.01     0.02   0.03   0.54
  13   1    -0.01  -0.40   0.30     0.00   0.01  -0.01     0.00   0.00   0.24
  14   1    -0.45   0.32  -0.00     0.01  -0.00   0.00    -0.06  -0.08   0.08
  15   1     0.37   0.14  -0.30    -0.00  -0.00   0.00     0.00   0.00   0.23
                      7                      8                      9
                        a                      a                      a 
 Frequencies --   419.7100               773.8162               835.1963
 Red. masses --    10.9830                 1.7447                 2.3976
 Frc consts  --     0.0000                 0.0000                 0.0000
 IR Inten    --     0.4338                 0.0102                 0.1588
 Raman Activ --     0.0000                 0.0000                 0.0000
 Depolar     --     0.0000                 0.0000                 0.0000
 Atom AN      X      Y      Z        X      Y      Z        X      Y      Z
   1   6    -0.04  -0.05   0.33    -0.14   0.10   0.00     0.14  -0.10  -0.00
   2   1    -0.01  -0.01   0.19     0.40   0.17  -0.06    -0.24  -0.12  -0.18
   3   1    -0.01  -0.01   0.19    -0.02  -0.43   0.06     0.03   0.26   0.18
   4   6     0.22   0.31  -0.04    -0.04   0.03   0.00     0.16  -0.11  -0.00
   5   1     0.06   0.09  -0.00    -0.00  -0.19  -0.09     0.03   0.34   0.16
   6   1     0.06   0.09  -0.00     0.17   0.07   0.09    -0.31  -0.14  -0.16
   7   8    -0.05  -0.06  -0.57     0.03  -0.02  -0.00    -0.06   0.04   0.00
   8   1    -0.09  -0.14  -0.04    -0.02   0.01   0.00     0.02  -0.01   0.00
   9   6    -0.19  -0.28   0.26    -0.15   0.10  -0.00    -0.17   0.12  -0.00
  10   1    -0.05  -0.07   0.10    -0.03  -0.43   0.04    -0.04  -0.28  -0.13
  11   1    -0.05  -0.07   0.10     0.40   0.17  -0.04     0.25   0.13   0.13
  12   6     0.06   0.08  -0.01    -0.02   0.01   0.00    -0.08   0.05   0.00
  13   1     0.02   0.03  -0.09     0.00  -0.15  -0.13    -0.01  -0.21  -0.22
  14   1     0.09   0.13   0.08     0.05  -0.04   0.00     0.10  -0.07   0.00
  15   1     0.02   0.03  -0.09     0.14   0.05   0.13     0.19   0.08   0.22
                     10                     11                     12
                        a                      a                      a 
 Frequencies --   937.4473               948.3878              1024.1564
 Red. masses --     5.8144                 2.3733                 9.7249
 Frc consts  --     0.0000                 0.0000                 0.0000
 IR Inten    --     0.1684                 0.1065                 0.4656
 Raman Activ --     0.0000                 0.0000                 0.0000
 Depolar     --     0.0000                 0.0000                 0.0000
 Atom AN      X      Y      Z        X      Y      Z        X      Y      Z
   1   6    -0.23  -0.32   0.16     0.13  -0.10   0.00     0.15   0.21   0.43
   2   1    -0.06  -0.08   0.11    -0.12  -0.07   0.33     0.04   0.05   0.12
   3   1    -0.06  -0.09   0.12     0.02   0.13  -0.33     0.04   0.05   0.12
   4   6     0.10   0.13   0.13    -0.19   0.14   0.00    -0.30  -0.42   0.05
   5   1     0.03   0.04   0.01    -0.04  -0.26  -0.10    -0.07  -0.09  -0.02
   6   1     0.02   0.03   0.01     0.23   0.12   0.10    -0.06  -0.10  -0.02
   7   8     0.01   0.02  -0.04     0.05  -0.04  -0.00     0.08   0.11  -0.28
   8   1    -0.08  -0.11   0.09    -0.01   0.00   0.00     0.17   0.24  -0.25
   9   6     0.15   0.22  -0.09     0.05  -0.03  -0.00     0.11   0.16   0.15
  10   1     0.04   0.06   0.13     0.01   0.05  -0.33     0.03   0.05   0.02
  11   1     0.04   0.06   0.12    -0.05  -0.03   0.34     0.04   0.04   0.02
  12   6     0.06   0.09  -0.34    -0.15   0.11  -0.00    -0.08  -0.11  -0.25
  13   1     0.01  -0.02   0.24    -0.03  -0.22  -0.25    -0.02  -0.04  -0.05
  14   1    -0.24  -0.34  -0.40     0.11  -0.08  -0.01    -0.04  -0.06  -0.09
  15   1    -0.03  -0.00   0.23     0.19   0.10   0.26    -0.03  -0.03  -0.05
                     13                     14                     15
                        a                      a                      a 
 Frequencies --  1068.5701              1100.6998              1124.8689
 Red. masses --     9.9178                 9.4300                 7.0884
 Frc consts  --     0.0000                 0.0000                 0.0000
 IR Inten    --     1.1378                 0.5187                 0.3165
 Raman Activ --     0.0000                 0.0000                 0.0000
 Depolar     --     0.0000                 0.0000                 0.0000
 Atom AN      X      Y      Z        X      Y      Z        X      Y      Z
   1   6     0.12   0.17   0.14    -0.02  -0.02   0.08     0.17   0.24  -0.40
   2   1     0.04   0.05   0.24    -0.02  -0.01   0.12     0.04   0.06  -0.14
   3   1     0.03   0.05   0.24    -0.01  -0.03   0.12     0.04   0.06  -0.14
   4   6     0.07   0.10  -0.59    -0.12  -0.17   0.25    -0.03  -0.04   0.17
   5   1     0.00  -0.01  -0.06    -0.02  -0.03   0.07    -0.00   0.01   0.15
   6   1    -0.01   0.00  -0.06    -0.02  -0.03   0.07     0.01  -0.00   0.15
   7   8    -0.21  -0.30   0.34     0.08   0.12  -0.19     0.03   0.05  -0.07
   8   1     0.14   0.20  -0.15     0.05   0.07  -0.08     0.08   0.11  -0.10
   9   6    -0.08  -0.12  -0.07    -0.17  -0.24  -0.50    -0.23  -0.32   0.27
  10   1    -0.02  -0.03   0.03    -0.04  -0.06  -0.20    -0.06  -0.08   0.29
  11   1    -0.02  -0.03   0.03    -0.05  -0.06  -0.20    -0.06  -0.08   0.29
  12   6     0.10   0.14  -0.00     0.22   0.31   0.30     0.07   0.10  -0.15
  13   1     0.02   0.01   0.14     0.06   0.07   0.21     0.01  -0.02   0.16
  14   1    -0.07  -0.09  -0.11    -0.02  -0.02  -0.01    -0.12  -0.17  -0.19
  15   1     0.01   0.03   0.14     0.05   0.08   0.21    -0.02   0.00   0.16
                     16                     17                     18
                        a                      a                      a 
 Frequencies --  1158.2842              1206.1737              1220.5018
 Red. masses --     5.1624                 4.0448                 4.4178
 Frc consts  --     0.0000                 0.0000                 0.0000
 IR Inten    --     0.3319                 0.3913                 0.0849
 Raman Activ --     0.0000                 0.0000                 0.0000
 Depolar     --     0.0000                 0.0000                 0.0000
 Atom AN      X      Y      Z        X      Y      Z        X      Y      Z
   1   6    -0.26   0.18  -0.00    -0.17  -0.24  -0.16     0.15  -0.10   0.00
   2   1     0.17   0.12   0.17    -0.05  -0.06   0.07    -0.08  -0.06   0.26
   3   1    -0.06  -0.20  -0.17    -0.04  -0.06   0.07     0.03   0.09  -0.27
   4   6     0.34  -0.24  -0.00     0.13   0.18   0.13     0.07  -0.05  -0.00
   5   1     0.08   0.32  -0.28     0.03   0.04   0.32     0.02   0.07  -0.29
   6   1    -0.28  -0.18   0.28     0.03   0.04   0.33    -0.06  -0.05   0.28
   7   8    -0.13   0.09   0.00    -0.09  -0.13  -0.05    -0.06   0.05   0.00
   8   1    -0.01   0.01  -0.00     0.31   0.44  -0.41    -0.01   0.00   0.00
   9   6     0.19  -0.13   0.00     0.10   0.15  -0.08    -0.33   0.23   0.00
  10   1     0.04   0.14  -0.10     0.02   0.02   0.04    -0.08  -0.23  -0.15
  11   1    -0.12  -0.09   0.10     0.02   0.04   0.04     0.19   0.15   0.15
  12   6    -0.10   0.07  -0.00    -0.06  -0.10   0.06     0.25  -0.18  -0.00
  13   1    -0.02  -0.09  -0.10    -0.01   0.01  -0.09     0.05   0.20   0.21
  14   1     0.05  -0.03  -0.00     0.05   0.07   0.09    -0.11   0.08  -0.00
  15   1     0.08   0.05   0.10     0.01  -0.01  -0.09    -0.17  -0.11  -0.21
                     19                     20                     21
                        a                      a                      a 
 Frequencies --  1270.8802              1279.6250              1281.3973
 Red. masses --     1.5617                 2.4990                 3.9164
 Frc consts  --     0.0000                 0.0000                 0.0000
 IR Inten    --     0.0194                 0.0664                 0.3115
 Raman Activ --     0.0000                 0.0000                 0.0000
 Depolar     --     0.0000                 0.0000                 0.0000
 Atom AN      X      Y      Z        X      Y      Z        X      Y      Z
   1   6     0.07  -0.05   0.00    -0.25   0.17   0.03    -0.02  -0.07   0.32
   2   1    -0.02  -0.02   0.45     0.12   0.11   0.15    -0.01  -0.03  -0.47
   3   1     0.01   0.02  -0.46    -0.06  -0.15  -0.23    -0.01   0.01  -0.43
   4   6     0.10  -0.07  -0.00     0.10  -0.05   0.01     0.11   0.17   0.06
   5   1     0.02   0.05   0.19     0.02   0.03   0.48     0.03   0.01  -0.15
   6   1    -0.04  -0.04  -0.19    -0.02  -0.02  -0.50     0.01   0.03  -0.06
   7   8     0.01  -0.01  -0.00     0.05  -0.06   0.00    -0.10  -0.13   0.01
   8   1     0.01  -0.00  -0.00     0.03   0.01  -0.02     0.13   0.18  -0.18
   9   6    -0.09   0.06  -0.00    -0.04   0.02   0.02    -0.05  -0.09   0.22
  10   1    -0.02  -0.05   0.46    -0.01  -0.02  -0.36    -0.02  -0.01  -0.28
  11   1     0.05   0.04  -0.46     0.01   0.02   0.30    -0.01  -0.02  -0.34
  12   6    -0.10   0.07   0.00     0.13  -0.08  -0.00     0.07   0.12  -0.05
  13   1    -0.02  -0.06  -0.08     0.03   0.08   0.09     0.01  -0.04   0.04
  14   1     0.01  -0.01   0.00    -0.05   0.02  -0.01    -0.07  -0.10  -0.12
  15   1     0.05   0.04   0.08    -0.07  -0.05  -0.08    -0.03   0.01   0.06
                     22                     23                     24
                        a                      a                      a 
 Frequencies --  1353.4017              1377.8255              1410.6215
 Red. masses --     4.5404                 5.0382                 3.2009
 Frc consts  --     0.0000                 0.0000                 0.0000
 IR Inten    --     0.1648                 0.2958                 0.0161
 Raman Activ --     0.0000                 0.0000                 0.0000
 Depolar     --     0.0000                 0.0000                 0.0000
 Atom AN      X      Y      Z        X      Y      Z        X      Y      Z
   1   6    -0.03  -0.05  -0.22     0.01   0.01  -0.36     0.01   0.02   0.01
   2   1     0.03   0.01   0.19    -0.02  -0.00   0.27     0.00   0.01   0.00
   3   1    -0.00   0.03   0.19     0.01  -0.02   0.27     0.00   0.00   0.00
   4   6    -0.05  -0.08  -0.19     0.04   0.06   0.39    -0.00  -0.00   0.02
   5   1    -0.02  -0.01   0.31     0.01   0.03  -0.45    -0.00  -0.00  -0.03
   6   1    -0.00  -0.02   0.31     0.02   0.02  -0.44    -0.00  -0.00  -0.03
   7   8     0.07   0.10  -0.01    -0.08  -0.11   0.02    -0.00  -0.00   0.00
   8   1    -0.07  -0.10   0.11     0.09   0.13  -0.13     0.00   0.00  -0.00
   9   6     0.01   0.01   0.44     0.01   0.02   0.21     0.00   0.00  -0.09
  10   1    -0.00  -0.03  -0.42     0.00  -0.02  -0.15    -0.00  -0.05   0.09
  11   1    -0.02  -0.01  -0.42    -0.02  -0.00  -0.15    -0.04  -0.02   0.09
  12   6     0.06   0.08  -0.05     0.01   0.01  -0.04     0.13   0.18   0.37
  13   1     0.01  -0.07  -0.01     0.00  -0.03   0.01     0.02  -0.22  -0.46
  14   1    -0.07  -0.10  -0.12    -0.01  -0.01  -0.02    -0.25  -0.35  -0.27
  15   1    -0.07  -0.01  -0.02    -0.02  -0.01   0.01    -0.21  -0.05  -0.46
                     25                     26                     27
                        a                      a                      a 
 Frequencies --  1486.2714              1492.4124              1494.3313
 Red. masses --     1.8399                 1.9316                 1.7967
 Frc consts  --     0.0000                 0.0000                 0.0000
 IR Inten    --     0.1082                 0.0974                 0.0457
 Raman Activ --     0.0000                 0.0000                 0.0000
 Depolar     --     0.0000                 0.0000                 0.0000
 Atom AN      X      Y      Z        X      Y      Z        X      Y      Z
   1   6    -0.03  -0.04   0.03    -0.12  -0.17  -0.01     0.11   0.15  -0.01
   2   1     0.09   0.03  -0.02     0.43   0.14   0.01    -0.45  -0.15   0.01
   3   1    -0.00   0.09  -0.02    -0.02   0.46   0.01     0.01  -0.47   0.01
   4   6    -0.14  -0.20  -0.03    -0.02  -0.03   0.03    -0.04  -0.06  -0.03
   5   1    -0.00   0.64  -0.01    -0.00   0.09  -0.02     0.00   0.21   0.02
   6   1     0.60   0.21  -0.01     0.09   0.03  -0.02     0.20   0.07   0.02
   7   8    -0.02  -0.03   0.03    -0.01  -0.01   0.00    -0.00  -0.01   0.01
   8   1     0.00   0.01  -0.01     0.01   0.01  -0.01    -0.00  -0.00   0.00
   9   6     0.05   0.07  -0.01    -0.10  -0.15  -0.03    -0.10  -0.14   0.02
  10   1     0.01  -0.20   0.00    -0.01   0.43   0.01    -0.01   0.44  -0.02
  11   1    -0.19  -0.06   0.00     0.41   0.14   0.01     0.41   0.14  -0.02
  12   6    -0.01  -0.02   0.00     0.04   0.05  -0.01     0.02   0.01   0.01
  13   1    -0.00   0.07  -0.00     0.00  -0.22   0.03     0.00  -0.05  -0.03
  14   1    -0.01  -0.01  -0.01     0.05   0.06   0.05    -0.02   0.00  -0.00
  15   1     0.06   0.02  -0.00    -0.21  -0.07   0.02    -0.05  -0.02  -0.00
                     28                     29                     30
                        a                      a                      a 
 Frequencies --  1496.3663              1501.3210              2868.0336
 Red. masses --     1.5231                 1.6834                 1.9765
 Frc consts  --     0.0000                 0.0000                 0.0000
 IR Inten    --     0.0224                 0.0218                 0.4434
 Raman Activ --     0.0000                 0.0000                 0.0000
 Depolar     --     0.0000                 0.0000                 0.0000
 Atom AN      X      Y      Z        X      Y      Z        X      Y      Z
   1   6    -0.00  -0.00   0.00    -0.03  -0.04  -0.03    -0.00   0.00  -0.00
   2   1     0.01   0.00  -0.02     0.12   0.04   0.01     0.01  -0.03  -0.00
   3   1     0.00   0.01   0.02    -0.00   0.12   0.01     0.03   0.00   0.00
   4   6    -0.00   0.00   0.00     0.00   0.00   0.01     0.24  -0.17  -0.00
   5   1    -0.00  -0.01  -0.00    -0.00  -0.02  -0.01    -0.67  -0.03  -0.01
   6   1    -0.00  -0.00   0.00    -0.02  -0.01  -0.01    -0.20   0.65   0.01
   7   8     0.00   0.00  -0.00     0.00   0.00  -0.00     0.01  -0.00   0.00
   8   1    -0.00  -0.00   0.00     0.00   0.00  -0.00    -0.01   0.01  -0.00
   9   6     0.04  -0.02  -0.00    -0.07  -0.10   0.05     0.00  -0.00   0.00
  10   1     0.01   0.00   0.02    -0.01   0.19  -0.04    -0.01  -0.00   0.00
  11   1    -0.02  -0.02  -0.02     0.18   0.05  -0.04    -0.00   0.01  -0.00
  12   6     0.17  -0.12  -0.00    -0.09  -0.14   0.11     0.00  -0.00  -0.00
  13   1     0.02   0.15  -0.44    -0.01   0.59  -0.15    -0.00  -0.00  -0.00
  14   1    -0.58   0.42   0.00    -0.17  -0.21  -0.17     0.00  -0.00   0.00
  15   1    -0.16  -0.07   0.44     0.56   0.19  -0.13    -0.00   0.00   0.00
                     31                     32                     33
                        a                      a                      a 
 Frequencies --  2898.9610              2963.3716              2971.2094
 Red. masses --     1.4226                 1.9321                 2.0285
 Frc consts  --     0.0000                 0.0000                 0.0000
 IR Inten    --     0.3636                 0.0596                 0.4839
 Raman Activ --     0.0000                 0.0000                 0.0000
 Depolar     --     0.0000                 0.0000                 0.0000
 Atom AN      X      Y      Z        X      Y      Z        X      Y      Z
   1   6    -0.00  -0.00  -0.00     0.18  -0.13   0.00    -0.16   0.11  -0.00
   2   1     0.00  -0.01  -0.00    -0.15   0.49  -0.01     0.13  -0.42   0.01
   3   1    -0.01  -0.00  -0.00    -0.51  -0.02   0.01     0.44   0.01  -0.01
   4   6    -0.11  -0.16  -0.02     0.02  -0.01   0.00    -0.01   0.01  -0.00
   5   1     0.70  -0.03   0.00    -0.03   0.00   0.00     0.02  -0.00   0.00
   6   1    -0.26   0.64   0.00    -0.01   0.02  -0.00     0.01  -0.01  -0.00
   7   8    -0.01  -0.01   0.02     0.00  -0.00  -0.00    -0.00  -0.00  -0.00
   8   1     0.00   0.00  -0.00    -0.00   0.00   0.00     0.00  -0.00   0.00
   9   6     0.00   0.00   0.00    -0.15   0.11  -0.00    -0.19   0.13  -0.00
  10   1    -0.01  -0.00  -0.00     0.44   0.02  -0.00     0.52   0.02  -0.00
  11   1     0.00  -0.01  -0.00     0.13  -0.42   0.00     0.15  -0.48   0.00
  12   6    -0.00  -0.00  -0.00     0.01  -0.01  -0.00     0.01  -0.01  -0.00
  13   1     0.00  -0.00   0.00    -0.04  -0.00  -0.00    -0.04  -0.00  -0.00
  14   1    -0.00  -0.00   0.00     0.00  -0.00   0.00     0.00  -0.00   0.00
  15   1    -0.00   0.00   0.00    -0.01   0.04   0.00    -0.01   0.04   0.00
                     34                     35                     36
                        a                      a                      a 
 Frequencies --  2980.1737              2982.7289              3029.4609
 Red. masses --     1.4655                 1.4968                 1.9553
 Frc consts  --     0.0000                 0.0000                 0.0000
 IR Inten    --     0.1762                 0.3698                 0.3150
 Raman Activ --     0.0000                 0.0000                 0.0000
 Depolar     --     0.0000                 0.0000                 0.0000
 Atom AN      X      Y      Z        X      Y      Z        X      Y      Z
   1   6     0.11   0.16  -0.01     0.04   0.06  -0.00     0.00  -0.00  -0.00
   2   1     0.24  -0.61   0.01     0.09  -0.21   0.00    -0.00   0.00   0.00
   3   1    -0.65   0.02   0.01    -0.22   0.01   0.00    -0.00   0.00  -0.00
   4   6     0.00   0.01   0.00     0.00   0.00   0.00     0.00  -0.00   0.00
   5   1    -0.01   0.00   0.00    -0.02   0.00  -0.00    -0.00  -0.00   0.00
   6   1     0.00  -0.01   0.00     0.01  -0.01  -0.00    -0.00   0.00  -0.00
   7   8    -0.00  -0.00  -0.00    -0.00  -0.00  -0.00    -0.00  -0.00  -0.00
   8   1     0.00   0.00   0.00     0.00   0.00   0.00     0.00  -0.00   0.00
   9   6    -0.04  -0.05  -0.00     0.11   0.16  -0.00    -0.02   0.02  -0.00
  10   1     0.23  -0.01  -0.00    -0.64   0.02   0.00     0.05  -0.00  -0.00
  11   1    -0.08   0.22  -0.00     0.24  -0.61   0.00     0.02  -0.05   0.00
  12   6    -0.00  -0.00  -0.00    -0.01  -0.01   0.01    -0.24   0.17  -0.00
  13   1     0.01   0.00  -0.00     0.03  -0.00   0.00     0.67   0.03   0.00
  14   1    -0.01  -0.01   0.01     0.02   0.02  -0.04    -0.04   0.02   0.00
  15   1    -0.00   0.01  -0.00    -0.01   0.03   0.00     0.20  -0.65  -0.00
                     37                     38                     39
                        a                      a                      a 
 Frequencies --  3033.7622              3042.2980              3594.5542
 Red. masses --     1.8069                 1.3894                 1.8780
 Frc consts  --     0.0000                 0.0000                 0.0000
 IR Inten    --     0.2926                 0.2145                 0.2428
 Raman Activ --     0.0000                 0.0000                 0.0000
 Depolar     --     0.0000                 0.0000                 0.0000
 Atom AN      X      Y      Z        X      Y      Z        X      Y      Z
   1   6    -0.00  -0.00   0.00    -0.00  -0.00   0.00     0.00   0.00  -0.00
   2   1    -0.01   0.02  -0.00    -0.00   0.00   0.00    -0.00   0.00   0.00
   3   1     0.02  -0.00  -0.00     0.01  -0.00   0.00     0.00  -0.00   0.00
   4   6     0.00   0.00   0.00     0.00   0.00   0.00    -0.00  -0.00  -0.00
   5   1    -0.00  -0.00   0.00    -0.00   0.00   0.00    -0.00   0.00   0.00
   6   1     0.00  -0.00   0.00     0.00  -0.00   0.00     0.00   0.00  -0.00
   7   8     0.00   0.00   0.00    -0.00  -0.00  -0.00    -0.08  -0.11  -0.20
   8   1    -0.00  -0.00  -0.00     0.00   0.00   0.00     0.32   0.45   0.80
   9   6    -0.01  -0.02   0.00     0.00   0.01  -0.01    -0.00  -0.00  -0.00
  10   1     0.04  -0.00  -0.00    -0.02  -0.00  -0.00    -0.00   0.00  -0.00
  11   1    -0.01   0.03  -0.00     0.01  -0.02  -0.00     0.00  -0.00  -0.00
  12   6    -0.15  -0.20   0.09     0.02   0.03  -0.18     0.00   0.00  -0.00
  13   1     0.61  -0.03   0.02     0.33   0.01  -0.02     0.00   0.00   0.00
  14   1     0.14   0.20  -0.37    -0.29  -0.42   0.69     0.00   0.00  -0.00
  15   1    -0.23   0.56   0.02    -0.11   0.32  -0.02    -0.00   0.00   0.00
