 Entering Gaussian System
 *********************************************
 Gaussian 98:
 frequency output generated by the xtb code
 *********************************************
                         Standard orientation:
 --------------------------------------------------------------------
  Center     Atomic     Atomic              Coordinates (Angstroms)
  Number     Number      Type              X           Y           Z
 --------------------------------------------------------------------
    1          6             0       -3.639264    0.232483    0.009756
    2          1             0       -3.291906   -0.803053    0.031487
    3          1             0       -4.731359    0.213933    0.030268
    4          6             0       -3.141533    0.938183    1.266855
    5          1             0       -2.043728    0.949891    1.273257
    6          1             0       -3.498664    1.976368    1.273548
    7          8             0       -3.627791    0.248594    2.404462
    8          1             0       -3.309299    0.693930    3.192587
    9          6             0       -3.150916    0.921762   -1.261135
   10          1             0       -2.059294    0.939545   -1.263219
   11          1             0       -3.499378    1.956415   -1.265213
   12          6             0       -3.650194    0.212040   -2.513733
   13          1             0       -4.737255    0.200425   -2.536893
   14          1             0       -3.291642    0.718384   -3.405713
   15          1             0       -3.296696   -0.816069   -2.535091
 --------------------------------------------------------------------
     1 basis functions        1 primitive gaussians
     1 alpha electrons        1 beta electrons
 
 Harmonic frequencies (cm**-1), IR intensities (KM/Mole),
 Raman scattering activities (A**4/amu), Raman depolarization ratios,
 reduced masses (AMU), force constants (mDyne/A) and normal coordinates:
                      1                      2                      3
                        a                      a                      a 
 Frequencies --    91.8987               104.0018               231.2358
 Red. masses --    99.0000                99.0000                99.0000
 Frc consts  --    99.0000                99.0000                99.0000
 IR Inten    --    99.0000                99.0000                99.0000
 Raman Activ --     0.0000                 0.0000                 0.0000
 Depolar     --     0.0000                 0.0000                 0.0000
 Atom AN      X      Y      Z        X      Y      Z        X      Y      Z
   1   6     0.42  -0.28   0.00     0.26  -0.18  -0.00    -0.11   0.08   0.00
   2   1     0.24  -0.04  -0.05     0.18  -0.02   0.08    -0.12  -0.01   0.04
   3   1     0.12  -0.20   0.05     0.08  -0.16  -0.08    -0.03   0.12  -0.04
   4   6     0.26  -0.18   0.00    -0.30   0.21   0.00    -0.08   0.05   0.00
   5   1     0.08  -0.15   0.11    -0.09   0.27   0.03    -0.02   0.03  -0.02
   6   1     0.16  -0.02  -0.10    -0.28  -0.01  -0.03    -0.03   0.01   0.02
   7   8    -0.40   0.27  -0.01     0.06  -0.04  -0.00     0.03  -0.02  -0.00
   8   1    -0.15   0.10   0.00    -0.09   0.06  -0.00     0.00  -0.00   0.00
   9   6    -0.07   0.06  -0.00     0.32  -0.22  -0.00     0.22  -0.15  -0.00
  10   1    -0.02   0.11  -0.08     0.09  -0.20  -0.06     0.06  -0.15   0.00
  11   1    -0.11  -0.01   0.07     0.22  -0.02   0.06     0.16  -0.01  -0.00
  12   6    -0.18   0.12   0.00    -0.27   0.19   0.00    -0.04   0.02   0.00
  13   1    -0.05  -0.08   0.10    -0.08   0.25   0.04    -0.01  -0.40   0.30
  14   1    -0.19   0.12  -0.00    -0.02   0.01  -0.00    -0.45   0.32  -0.00
  15   1     0.05   0.07  -0.09    -0.27  -0.01  -0.04     0.37   0.14  -0.30
                      4                      5                      6
                        a                      a                      a 
 Frequencies --   286.0232               187.0223               394.7578
 Red. masses --    99.0000                99.0000                99.0000
 Frc consts  --    99.0000                99.0000                99.0000
 IR Inten    --    99.0000                99.0000                99.0000
 Raman Activ --     0.0000                 0.0000                 0.0000
 Depolar     --     0.0000                 0.0000                 0.0000
 Atom AN      X      Y      Z        X      Y      Z        X      Y      Z
   1   6    -0.08   0.04   0.00     0.25   0.38  -0.01    -0.13  -0.19  -0.15
   2   1    -0.08  -0.01  -0.01     0.06   0.10  -0.00    -0.03  -0.05  -0.08
   3   1    -0.02   0.07   0.02     0.07   0.11  -0.00    -0.04  -0.05  -0.08
   4   6     0.08  -0.06  -0.00     0.11   0.16   0.15    -0.08  -0.12  -0.36
   5   1     0.03  -0.02  -0.01     0.03   0.04   0.11    -0.02  -0.03  -0.15
   6   1     0.03  -0.02   0.01     0.03   0.04   0.12    -0.02  -0.03  -0.15
   7   8     0.21  -0.14   0.00    -0.21  -0.33  -0.27     0.06   0.09  -0.32
   8   1    -0.77   0.55  -0.00    -0.14  -0.16   0.01     0.03   0.05  -0.10
   9   6    -0.03   0.01   0.01     0.12   0.18  -0.15     0.14   0.20   0.28
  10   1    -0.01  -0.00   0.01     0.04   0.05  -0.10     0.04   0.05   0.11
  11   1    -0.00   0.00  -0.01     0.03   0.05  -0.11     0.03   0.05   0.11
  12   6     0.01   0.01  -0.01    -0.20  -0.29   0.23     0.02   0.03   0.54
  13   1     0.00   0.01  -0.01    -0.06  -0.08   0.16     0.00   0.00   0.24
  14   1     0.01  -0.00   0.00    -0.13  -0.19  -0.02    -0.06  -0.08   0.08
  15   1    -0.00  -0.00   0.00    -0.06  -0.09   0.16     0.00   0.00   0.23
                      7                      8                      9
                        a                      a                      a 
 Frequencies --   773.8162               419.7100              1496.3663
 Red. masses --    99.0000                99.0000                99.0000
 Frc consts  --    99.0000                99.0000                99.0000
 IR Inten    --    99.0000                99.0000                99.0000
 Raman Activ --     0.0000                 0.0000                 0.0000
 Depolar     --     0.0000                 0.0000                 0.0000
 Atom AN      X      Y      Z        X      Y      Z        X      Y      Z
   1   6    -0.14   0.10   0.00    -0.04  -0.05   0.33    -0.00  -0.00   0.00
   2   1     0.40   0.17  -0.06    -0.01  -0.01   0.19     0.01   0.00  -0.02
   3   1    -0.02  -0.43   0.06    -0.01  -0.01   0.19     0.00   0.01   0.02
   4   6    -0.04   0.03   0.00     0.22   0.31  -0.04    -0.00   0.00   0.00
   5   1    -0.00  -0.19  -0.09     0.06   0.09  -0.00    -0.00  -0.01  -0.00
   6   1     0.17   0.07   0.09     0.06   0.09  -0.00    -0.00  -0.00   0.00
   7   8     0.03  -0.02  -0.00    -0.05  -0.06  -0.57     0.00   0.00  -0.00
   8   1    -0.02   0.01   0.00    -0.09  -0.14  -0.04    -0.00  -0.00   0.00
   9   6    -0.15   0.10  -0.00    -0.19  -0.28   0.26     0.04  -0.02  -0.00
  10   1    -0.03  -0.43   0.04    -0.05  -0.07   0.10     0.01   0.00   0.02
  11   1     0.40   0.17  -0.04    -0.05  -0.07   0.10    -0.02  -0.02  -0.02
  12   6    -0.02   0.01   0.00     0.06   0.08  -0.01     0.17  -0.12  -0.00
  13   1     0.00  -0.15  -0.13     0.02   0.03  -0.09     0.02   0.15  -0.44
  14   1     0.05  -0.04   0.00     0.09   0.13   0.08    -0.58   0.42   0.00
  15   1     0.14   0.05   0.13     0.02   0.03  -0.09    -0.16  -0.07   0.44
                     10                     11                     12
                        a                      a                      a 
 Frequencies --   835.1963              1501.3210               937.4473
 Red. masses --    99.0000                99.0000                99.0000
 Frc consts  --    99.0000                99.0000                99.0000
 IR Inten    --    99.0000                99.0000                99.0000
 Raman Activ --     0.0000                 0.0000                 0.0000
 Depolar     --     0.0000                 0.0000                 0.0000
 Atom AN      X      Y      Z        X      Y      Z        X      Y      Z
   1   6     0.14  -0.10  -0.00    -0.03  -0.04  -0.03    -0.23  -0.32   0.16
   2   1    -0.24  -0.12  -0.18     0.12   0.04   0.01    -0.06  -0.08   0.11
   3   1     0.03   0.26   0.18    -0.00   0.12   0.01    -0.06  -0.09   0.12
   4   6     0.16  -0.11  -0.00     0.00   0.00   0.01     0.10   0.13   0.13
   5   1     0.03   0.34   0.16    -0.00  -0.02  -0.01     0.03   0.04   0.01
   6   1    -0.31  -0.14  -0.16    -0.02  -0.01  -0.01     0.02   0.03   0.01
   7   8    -0.06   0.04   0.00     0.00   0.00  -0.00     0.01   0.02  -0.04
   8   1     0.02  -0.01   0.00     0.00   0.00  -0.00    -0.08  -0.11   0.09
   9   6    -0.17   0.12  -0.00    -0.07  -0.10   0.05     0.15   0.22  -0.09
  10   1    -0.04  -0.28  -0.13    -0.01   0.19  -0.04     0.04   0.06   0.13
  11   1     0.25   0.13   0.13     0.18   0.05  -0.04     0.04   0.06   0.12
  12   6    -0.08   0.05   0.00    -0.09  -0.14   0.11     0.06   0.09  -0.34
  13   1    -0.01  -0.21  -0.22    -0.01   0.59  -0.15     0.01  -0.02   0.24
  14   1     0.10  -0.07   0.00    -0.17  -0.21  -0.17    -0.24  -0.34  -0.40
  15   1     0.19   0.08   0.22     0.56   0.19  -0.13    -0.03  -0.00   0.23
                     13                     14                     15
                        a                      a                      a 
 Frequencies --  1024.1564               948.3878              1158.2842
 Red. masses --    99.0000                99.0000                99.0000
 Frc consts  --    99.0000                99.0000                99.0000
 IR Inten    --    99.0000                99.0000                99.0000
 Raman Activ --     0.0000                 0.0000                 0.0000
 Depolar     --     0.0000                 0.0000                 0.0000
 Atom AN      X      Y      Z        X      Y      Z        X      Y      Z
   1   6     0.15   0.21   0.43     0.13  -0.10   0.00    -0.26   0.18  -0.00
   2   1     0.04   0.05   0.12    -0.12  -0.07   0.33     0.17   0.12   0.17
   3   1     0.04   0.05   0.12     0.02   0.13  -0.33    -0.06  -0.20  -0.17
   4   6    -0.30  -0.42   0.05    -0.19   0.14   0.00     0.34  -0.24  -0.00
   5   1    -0.07  -0.09  -0.02    -0.04  -0.26  -0.10     0.08   0.32  -0.28
   6   1    -0.06  -0.10  -0.02     0.23   0.12   0.10    -0.28  -0.18   0.28
   7   8     0.08   0.11  -0.28     0.05  -0.04  -0.00    -0.13   0.09   0.00
   8   1     0.17   0.24  -0.25    -0.01   0.00   0.00    -0.01   0.01  -0.00
   9   6     0.11   0.16   0.15     0.05  -0.03  -0.00     0.19  -0.13   0.00
  10   1     0.03   0.05   0.02     0.01   0.05  -0.33     0.04   0.14  -0.10
  11   1     0.04   0.04   0.02    -0.05  -0.03   0.34    -0.12  -0.09   0.10
  12   6    -0.08  -0.11  -0.25    -0.15   0.11  -0.00    -0.10   0.07  -0.00
  13   1    -0.02  -0.04  -0.05    -0.03  -0.22  -0.25    -0.02  -0.09  -0.10
  14   1    -0.04  -0.06  -0.09     0.11  -0.08  -0.01     0.05  -0.03  -0.00
  15   1    -0.03  -0.03  -0.05     0.19   0.10   0.26     0.08   0.05   0.10
                     16                     17                     18
                        a                      a                      a 
 Frequencies --  1220.5018              1486.2714              1281.3973
 Red. masses --    99.0000                99.0000                99.0000
 Frc consts  --    99.0000                99.0000                99.0000
 IR Inten    --    99.0000                99.0000                99.0000
 Raman Activ --     0.0000                 0.0000                 0.0000
 Depolar     --     0.0000                 0.0000                 0.0000
 Atom AN      X      Y      Z        X      Y      Z        X      Y      Z
   1   6     0.15  -0.10   0.00    -0.03  -0.04   0.03    -0.02  -0.07   0.32
   2   1    -0.08  -0.06   0.26     0.09   0.03  -0.02    -0.01  -0.03  -0.47
   3   1     0.03   0.09  -0.27    -0.00   0.09  -0.02    -0.01   0.01  -0.43
   4   6     0.07  -0.05  -0.00    -0.14  -0.20  -0.03     0.11   0.17   0.06
   5   1     0.02   0.07  -0.29    -0.00   0.64  -0.01     0.03   0.01  -0.15
   6   1    -0.06  -0.05   0.28     0.60   0.21  -0.01     0.01   0.03  -0.06
   7   8    -0.06   0.05   0.00    -0.02  -0.03   0.03    -0.10  -0.13   0.01
   8   1    -0.01   0.00   0.00     0.00   0.01  -0.01     0.13   0.18  -0.18
   9   6    -0.33   0.23   0.00     0.05   0.07  -0.01    -0.05  -0.09   0.22
  10   1    -0.08  -0.23  -0.15     0.01  -0.20   0.00    -0.02  -0.01  -0.28
  11   1     0.19   0.15   0.15    -0.19  -0.06   0.00    -0.01  -0.02  -0.34
  12   6     0.25  -0.18  -0.00    -0.01  -0.02   0.00     0.07   0.12  -0.05
  13   1     0.05   0.20   0.21    -0.00   0.07  -0.00     0.01  -0.04   0.04
  14   1    -0.11   0.08  -0.00    -0.01  -0.01  -0.01    -0.07  -0.10  -0.12
  15   1    -0.17  -0.11  -0.21     0.06   0.02  -0.00    -0.03   0.01   0.06
                     19                     20                     21
                        a                      a                      a 
 Frequencies --  1124.8689              1100.6998              1068.5701
 Red. masses --    99.0000                99.0000                99.0000
 Frc consts  --    99.0000                99.0000                99.0000
 IR Inten    --    99.0000                99.0000                99.0000
 Raman Activ --     0.0000                 0.0000                 0.0000
 Depolar     --     0.0000                 0.0000                 0.0000
 Atom AN      X      Y      Z        X      Y      Z        X      Y      Z
   1   6     0.17   0.24  -0.40    -0.02  -0.02   0.08     0.12   0.17   0.14
   2   1     0.04   0.06  -0.14    -0.02  -0.01   0.12     0.04   0.05   0.24
   3   1     0.04   0.06  -0.14    -0.01  -0.03   0.12     0.03   0.05   0.24
   4   6    -0.03  -0.04   0.17    -0.12  -0.17   0.25     0.07   0.10  -0.59
   5   1    -0.00   0.01   0.15    -0.02  -0.03   0.07     0.00  -0.01  -0.06
   6   1     0.01  -0.00   0.15    -0.02  -0.03   0.07    -0.01   0.00  -0.06
   7   8     0.03   0.05  -0.07     0.08   0.12  -0.19    -0.21  -0.30   0.34
   8   1     0.08   0.11  -0.10     0.05   0.07  -0.08     0.14   0.20  -0.15
   9   6    -0.23  -0.32   0.27    -0.17  -0.24  -0.50    -0.08  -0.12  -0.07
  10   1    -0.06  -0.08   0.29    -0.04  -0.06  -0.20    -0.02  -0.03   0.03
  11   1    -0.06  -0.08   0.29    -0.05  -0.06  -0.20    -0.02  -0.03   0.03
  12   6     0.07   0.10  -0.15     0.22   0.31   0.30     0.10   0.14  -0.00
  13   1     0.01  -0.02   0.16     0.06   0.07   0.21     0.02   0.01   0.14
  14   1    -0.12  -0.17  -0.19    -0.02  -0.02  -0.01    -0.07  -0.09  -0.11
  15   1    -0.02   0.00   0.16     0.05   0.08   0.21     0.01   0.03   0.14
                     22                     23                     24
                        a                      a                      a 
 Frequencies --  1279.6250              1494.3313              1377.8255
 Red. masses --    99.0000                99.0000                99.0000
 Frc consts  --    99.0000                99.0000                99.0000
 IR Inten    --    99.0000                99.0000                99.0000
 Raman Activ --     0.0000                 0.0000                 0.0000
 Depolar     --     0.0000                 0.0000                 0.0000
 Atom AN      X      Y      Z        X      Y      Z        X      Y      Z
   1   6    -0.25   0.17   0.03     0.11   0.15  -0.01     0.01   0.01  -0.36
   2   1     0.12   0.11   0.15    -0.45  -0.15   0.01    -0.02  -0.00   0.27
   3   1    -0.06  -0.15  -0.23     0.01  -0.47   0.01     0.01  -0.02   0.27
   4   6     0.10  -0.05   0.01    -0.04  -0.06  -0.03     0.04   0.06   0.39
   5   1     0.02   0.03   0.48     0.00   0.21   0.02     0.01   0.03  -0.45
   6   1    -0.02  -0.02  -0.50     0.20   0.07   0.02     0.02   0.02  -0.44
   7   8     0.05  -0.06   0.00    -0.00  -0.01   0.01    -0.08  -0.11   0.02
   8   1     0.03   0.01  -0.02    -0.00  -0.00   0.00     0.09   0.13  -0.13
   9   6    -0.04   0.02   0.02    -0.10  -0.14   0.02     0.01   0.02   0.21
  10   1    -0.01  -0.02  -0.36    -0.01   0.44  -0.02     0.00  -0.02  -0.15
  11   1     0.01   0.02   0.30     0.41   0.14  -0.02    -0.02  -0.00  -0.15
  12   6     0.13  -0.08  -0.00     0.02   0.01   0.01     0.01   0.01  -0.04
  13   1     0.03   0.08   0.09     0.00  -0.05  -0.03     0.00  -0.03   0.01
  14   1    -0.05   0.02  -0.01    -0.02   0.00  -0.00    -0.01  -0.01  -0.02
  15   1    -0.07  -0.05  -0.08    -0.05  -0.02  -0.00    -0.02  -0.01   0.01
                     25                     26                     27
                        a                      a                      a 
 Frequencies --  1492.4124              1206.1737              1353.4017
 Red. masses --    99.0000                99.0000                99.0000
 Frc consts  --    99.0000                99.0000                99.0000
 IR Inten    --    99.0000                99.0000                99.0000
 Raman Activ --     0.0000                 0.0000                 0.0000
 Depolar     --     0.0000                 0.0000                 0.0000
 Atom AN      X      Y      Z        X      Y      Z        X      Y      Z
   1   6    -0.12  -0.17  -0.01    -0.17  -0.24  -0.16    -0.03  -0.05  -0.22
   2   1     0.43   0.14   0.01    -0.05  -0.06   0.07     0.03   0.01   0.19
   3   1    -0.02   0.46   0.01    -0.04  -0.06   0.07    -0.00   0.03   0.19
   4   6    -0.02  -0.03   0.03     0.13   0.18   0.13    -0.05  -0.08  -0.19
   5   1    -0.00   0.09  -0.02     0.03   0.04   0.32    -0.02  -0.01   0.31
   6   1     0.09   0.03  -0.02     0.03   0.04   0.33    -0.00  -0.02   0.31
   7   8    -0.01  -0.01   0.00    -0.09  -0.13  -0.05     0.07   0.10  -0.01
   8   1     0.01   0.01  -0.01     0.31   0.44  -0.41    -0.07  -0.10   0.11
   9   6    -0.10  -0.15  -0.03     0.10   0.15  -0.08     0.01   0.01   0.44
  10   1    -0.01   0.43   0.01     0.02   0.02   0.04    -0.00  -0.03  -0.42
  11   1     0.41   0.14   0.01     0.02   0.04   0.04    -0.02  -0.01  -0.42
  12   6     0.04   0.05  -0.01    -0.06  -0.10   0.06     0.06   0.08  -0.05
  13   1     0.00  -0.22   0.03    -0.01   0.01  -0.09     0.01  -0.07  -0.01
  14   1     0.05   0.06   0.05     0.05   0.07   0.09    -0.07  -0.10  -0.12
  15   1    -0.21  -0.07   0.02     0.01  -0.01  -0.09    -0.07  -0.01  -0.02
                     28                     29                     30
                        a                      a                      a 
 Frequencies --  1270.8802              1410.6215              2963.3716
 Red. masses --    99.0000                99.0000                99.0000
 Frc consts  --    99.0000                99.0000                99.0000
 IR Inten    --    99.0000                99.0000                99.0000
 Raman Activ --     0.0000                 0.0000                 0.0000
 Depolar     --     0.0000                 0.0000                 0.0000
 Atom AN      X      Y      Z        X      Y      Z        X      Y      Z
   1   6     0.07  -0.05   0.00     0.01   0.02   0.01     0.18  -0.13   0.00
   2   1    -0.02  -0.02   0.45     0.00   0.01   0.00    -0.15   0.49  -0.01
   3   1     0.01   0.02  -0.46     0.00   0.00   0.00    -0.51  -0.02   0.01
   4   6     0.10  -0.07  -0.00    -0.00  -0.00   0.02     0.02  -0.01   0.00
   5   1     0.02   0.05   0.19    -0.00  -0.00  -0.03    -0.03   0.00   0.00
   6   1    -0.04  -0.04  -0.19    -0.00  -0.00  -0.03    -0.01   0.02  -0.00
   7   8     0.01  -0.01  -0.00    -0.00  -0.00   0.00     0.00  -0.00  -0.00
   8   1     0.01  -0.00  -0.00     0.00   0.00  -0.00    -0.00   0.00   0.00
   9   6    -0.09   0.06  -0.00     0.00   0.00  -0.09    -0.15   0.11  -0.00
  10   1    -0.02  -0.05   0.46    -0.00  -0.05   0.09     0.44   0.02  -0.00
  11   1     0.05   0.04  -0.46    -0.04  -0.02   0.09     0.13  -0.42   0.00
  12   6    -0.10   0.07   0.00     0.13   0.18   0.37     0.01  -0.01  -0.00
  13   1    -0.02  -0.06  -0.08     0.02  -0.22  -0.46    -0.04  -0.00  -0.00
  14   1     0.01  -0.01   0.00    -0.25  -0.35  -0.27     0.00  -0.00   0.00
  15   1     0.05   0.04   0.08    -0.21  -0.05  -0.46    -0.01   0.04   0.00
                     31                     32                     33
                        a                      a                      a 
 Frequencies --  2868.0336              2980.1737              2971.2094
 Red. masses --    99.0000                99.0000                99.0000
 Frc consts  --    99.0000                99.0000                99.0000
 IR Inten    --    99.0000                99.0000                99.0000
 Raman Activ --     0.0000                 0.0000                 0.0000
 Depolar     --     0.0000                 0.0000                 0.0000
 Atom AN      X      Y      Z        X      Y      Z        X      Y      Z
   1   6    -0.00   0.00  -0.00     0.11   0.16  -0.01    -0.16   0.11  -0.00
   2   1     0.01  -0.03  -0.00     0.24  -0.61   0.01     0.13  -0.42   0.01
   3   1     0.03   0.00   0.00    -0.65   0.02   0.01     0.44   0.01  -0.01
   4   6     0.24  -0.17  -0.00     0.00   0.01   0.00    -0.01   0.01  -0.00
   5   1    -0.67  -0.03  -0.01    -0.01   0.00   0.00     0.02  -0.00   0.00
   6   1    -0.20   0.65   0.01     0.00  -0.01   0.00     0.01  -0.01  -0.00
   7   8     0.01  -0.00   0.00    -0.00  -0.00  -0.00    -0.00  -0.00  -0.00
   8   1    -0.01   0.01  -0.00     0.00   0.00   0.00     0.00  -0.00   0.00
   9   6     0.00  -0.00   0.00    -0.04  -0.05  -0.00    -0.19   0.13  -0.00
  10   1    -0.01  -0.00   0.00     0.23  -0.01  -0.00     0.52   0.02  -0.00
  11   1    -0.00   0.01  -0.00    -0.08   0.22  -0.00     0.15  -0.48   0.00
  12   6     0.00  -0.00  -0.00    -0.00  -0.00  -0.00     0.01  -0.01  -0.00
  13   1    -0.00  -0.00  -0.00     0.01   0.00  -0.00    -0.04  -0.00  -0.00
  14   1     0.00  -0.00   0.00    -0.01  -0.01   0.01     0.00  -0.00   0.00
  15   1    -0.00   0.00   0.00    -0.00   0.01  -0.00    -0.01   0.04   0.00
                     34                     35                     36
                        a                      a                      a 
 Frequencies --  2898.9610              3029.4609              2982.7289
 Red. masses --    99.0000                99.0000                99.0000
 Frc consts  --    99.0000                99.0000                99.0000
 IR Inten    --    99.0000                99.0000                99.0000
 Raman Activ --     0.0000                 0.0000                 0.0000
 Depolar     --     0.0000                 0.0000                 0.0000
 Atom AN      X      Y      Z        X      Y      Z        X      Y      Z
   1   6    -0.00  -0.00  -0.00     0.00  -0.00  -0.00     0.04   0.06  -0.00
   2   1     0.00  -0.01  -0.00    -0.00   0.00   0.00     0.09  -0.21   0.00
   3   1    -0.01  -0.00  -0.00    -0.00   0.00  -0.00    -0.22   0.01   0.00
   4   6    -0.11  -0.16  -0.02     0.00  -0.00   0.00     0.00   0.00   0.00
   5   1     0.70  -0.03   0.00    -0.00  -0.00   0.00    -0.02   0.00  -0.00
   6   1    -0.26   0.64   0.00    -0.00   0.00  -0.00     0.01  -0.01  -0.00
   7   8    -0.01  -0.01   0.02    -0.00  -0.00  -0.00    -0.00  -0.00  -0.00
   8   1     0.00   0.00  -0.00     0.00  -0.00   0.00     0.00   0.00   0.00
   9   6     0.00   0.00   0.00    -0.02   0.02  -0.00     0.11   0.16  -0.00
  10   1    -0.01  -0.00  -0.00     0.05  -0.00  -0.00    -0.64   0.02   0.00
  11   1     0.00  -0.01  -0.00     0.02  -0.05   0.00     0.24  -0.61   0.00
  12   6    -0.00  -0.00  -0.00    -0.24   0.17  -0.00    -0.01  -0.01   0.01
  13   1     0.00  -0.00   0.00     0.67   0.03   0.00     0.03  -0.00   0.00
  14   1    -0.00  -0.00   0.00    -0.04   0.02   0.00     0.02   0.02  -0.04
  15   1    -0.00   0.00   0.00     0.20  -0.65  -0.00    -0.01   0.03   0.00
                     37                     38                     39
                        a                      a                      a 
 Frequencies --  3033.7622              3042.2980              3594.5542
 Red. masses --    99.0000                99.0000                99.0000
 Frc consts  --    99.0000                99.0000                99.0000
 IR Inten    --    99.0000                99.0000                99.0000
 Raman Activ --     0.0000                 0.0000                 0.0000
 Depolar     --     0.0000                 0.0000                 0.0000
 Atom AN      X      Y      Z        X      Y      Z        X      Y      Z
   1   6    -0.00  -0.00   0.00    -0.00  -0.00   0.00     0.00   0.00  -0.00
   2   1    -0.01   0.02  -0.00    -0.00   0.00   0.00    -0.00   0.00   0.00
   3   1     0.02  -0.00  -0.00     0.01  -0.00   0.00     0.00  -0.00   0.00
   4   6     0.00   0.00   0.00     0.00   0.00   0.00    -0.00  -0.00  -0.00
   5   1    -0.00  -0.00   0.00    -0.00   0.00   0.00    -0.00   0.00   0.00
   6   1     0.00  -0.00   0.00     0.00  -0.00   0.00     0.00   0.00  -0.00
   7   8     0.00   0.00   0.00    -0.00  -0.00  -0.00    -0.08  -0.11  -0.20
   8   1    -0.00  -0.00  -0.00     0.00   0.00   0.00     0.32   0.45   0.80
   9   6    -0.01  -0.02   0.00     0.00   0.01  -0.01    -0.00  -0.00  -0.00
  10   1     0.04  -0.00  -0.00    -0.02  -0.00  -0.00    -0.00   0.00  -0.00
  11   1    -0.01   0.03  -0.00     0.01  -0.02  -0.00     0.00  -0.00  -0.00
  12   6    -0.15  -0.20   0.09     0.02   0.03  -0.18     0.00   0.00  -0.00
  13   1     0.61  -0.03   0.02     0.33   0.01  -0.02     0.00   0.00   0.00
  14   1     0.14   0.20  -0.37    -0.29  -0.42   0.69     0.00   0.00  -0.00
  15   1    -0.23   0.56   0.02    -0.11   0.32  -0.02    -0.00   0.00   0.00
