 Entering Gaussian System
 *********************************************
 Gaussian 98:
 frequency output generated by the xtb code
 *********************************************
                         Standard orientation:
 --------------------------------------------------------------------
  Center     Atomic     Atomic              Coordinates (Angstroms)
  Number     Number      Type              X           Y           Z
 --------------------------------------------------------------------
    1          6             0       -6.175206    1.110446   -0.010981
    2          1             0       -5.823763    0.081344   -0.035936
    3          1             0       -5.815076    1.617897   -0.902897
    4          1             0       -7.262592    1.100506   -0.037046
    5          6             0       -5.677466    1.814532    1.245260
    6          1             0       -6.023030    2.850872    1.241231
    7          1             0       -4.585152    1.831152    1.243034
    8          6             0       -6.167765    1.125447    2.516688
    9          1             0       -5.822597    0.089187    2.521268
   10          1             0       -7.259885    1.109131    2.519771
   11          6             0       -5.670403    1.828179    3.777460
   12          1             0       -6.015055    2.865225    3.772573
   13          1             0       -4.577706    1.844829    3.774301
   14          6             0       -6.161906    1.137993    5.045510
   15          1             0       -5.816648    0.103291    5.068748
   16          1             0       -7.252620    1.122840    5.067079
   17          6             0       -5.666040    1.838459    6.305955
   18          1             0       -6.017823    2.881046    6.314182
   19          1             0       -4.565779    1.850039    6.315900
   20          8             0       -6.161944    1.141913    7.429317
   21          1             0       -5.855068    1.575452    8.231832
 --------------------------------------------------------------------
     1 basis functions        1 primitive gaussians
     1 alpha electrons        1 beta electrons
 
 Harmonic frequencies (cm**-1), IR intensities (KM/Mole),
 Raman scattering activities (A**4/amu), Raman depolarization ratios,
 reduced masses (AMU), force constants (mDyne/A) and normal coordinates:
                      1                      2                      3
                        a                      a                      a 
 Frequencies --    55.8511                72.2873               103.8560
 Red. masses --    10.1451                 6.5173                10.4534
 Frc consts  --     0.0000                 0.0000                 0.0000
 IR Inten    --     0.3093                 0.3190                 0.1910
 Raman Activ --     0.0000                 0.0000                 0.0000
 Depolar     --     0.0000                 0.0000                 0.0000
 Atom AN      X      Y      Z        X      Y      Z        X      Y      Z
   1   6     0.31  -0.22   0.00     0.20  -0.14   0.00    -0.24  -0.33   0.15
   2   1     0.06  -0.08   0.08     0.26   0.03   0.01    -0.07  -0.10   0.10
   3   1     0.17  -0.12   0.00    -0.03   0.02  -0.00    -0.12  -0.16  -0.02
   4   1     0.09  -0.03  -0.07     0.06  -0.25  -0.01    -0.07  -0.10   0.11
   5   6     0.08  -0.06  -0.00    -0.29   0.21  -0.00    -0.01  -0.01  -0.12
   6   1     0.06  -0.01  -0.07    -0.26   0.00  -0.02    -0.00  -0.00  -0.09
   7   1     0.02  -0.05   0.07    -0.09   0.24   0.02    -0.00  -0.00  -0.09
   8   6    -0.27   0.20   0.00     0.01  -0.01   0.00     0.17   0.23   0.07
   9   1    -0.15   0.03   0.05     0.07   0.02  -0.03     0.05   0.07   0.05
  10   1    -0.08   0.13  -0.04     0.00  -0.08   0.03     0.05   0.06   0.05
  11   6    -0.28   0.20  -0.00    -0.01   0.01   0.00     0.23   0.32  -0.00
  12   1    -0.07   0.06  -0.00     0.01   0.01  -0.01     0.07   0.09  -0.00
  13   1    -0.08   0.04   0.00    -0.00  -0.01   0.01     0.07   0.09   0.00
  14   6    -0.30   0.21  -0.00    -0.09   0.06  -0.00     0.16   0.23  -0.08
  15   1    -0.14   0.04  -0.04    -0.14  -0.02  -0.05     0.04   0.07  -0.05
  16   1    -0.09   0.12   0.03    -0.03   0.14   0.05     0.05   0.07  -0.05
  17   6     0.02  -0.01   0.00     0.35  -0.25   0.00    -0.01  -0.02   0.12
  18   1     0.01  -0.01   0.09     0.31  -0.00  -0.01    -0.01  -0.01   0.09
  19   1     0.01  -0.00  -0.08     0.10  -0.30   0.02    -0.00  -0.01   0.09
  20   8     0.39  -0.28  -0.00    -0.23   0.16  -0.00    -0.26  -0.36  -0.17
  21   1     0.15  -0.11   0.00     0.03  -0.02   0.00    -0.11  -0.15   0.01
                      4                      5                      6
                        a                      a                      a 
 Frequencies --   123.5500               132.8303               232.5270
 Red. masses --     7.8265                 6.7718                 2.1746
 Frc consts  --     0.0000                 0.0000                 0.0000
 IR Inten    --     0.1790                 0.1685                 0.0154
 Raman Activ --     0.0000                 0.0000                 0.0000
 Depolar     --     0.0000                 0.0000                 0.0000
 Atom AN      X      Y      Z        X      Y      Z        X      Y      Z
   1   6    -0.11   0.08  -0.00    -0.15   0.11  -0.00     0.04  -0.03  -0.00
   2   1     0.05   0.06  -0.08    -0.17  -0.01  -0.03    -0.37  -0.14   0.30
   3   1    -0.14   0.10   0.00    -0.01   0.01   0.00     0.45  -0.32   0.00
   4   1    -0.03  -0.07   0.08    -0.05   0.16   0.03     0.01   0.39  -0.30
   5   6    -0.01   0.01   0.00     0.22  -0.16   0.00    -0.22   0.16  -0.00
   6   1    -0.07  -0.02   0.06     0.13  -0.02   0.05    -0.16   0.01   0.00
   7   1    -0.00   0.07  -0.06     0.06  -0.11  -0.05    -0.06   0.15  -0.00
   8   6     0.33  -0.24  -0.00     0.27  -0.19   0.00     0.11  -0.08   0.00
   9   1     0.19  -0.04  -0.02     0.22  -0.01   0.07     0.13   0.01  -0.04
  10   1     0.10  -0.17   0.02     0.08  -0.21  -0.07     0.03  -0.12   0.04
  11   6     0.17  -0.13   0.00    -0.39   0.28  -0.00     0.08  -0.06  -0.00
  12   1     0.14  -0.01  -0.09    -0.31   0.01  -0.04     0.04  -0.01  -0.01
  13   1     0.05  -0.13   0.09    -0.12   0.29   0.04     0.02  -0.03   0.01
  14   6    -0.41   0.29   0.00    -0.08   0.06   0.00    -0.02   0.01   0.00
  15   1    -0.28   0.03   0.05    -0.01   0.02  -0.07    -0.03  -0.00   0.01
  16   1    -0.12   0.25  -0.05    -0.02   0.01   0.07    -0.01   0.03  -0.01
  17   6    -0.17   0.12  -0.00     0.20  -0.14   0.00    -0.01   0.01   0.00
  18   1    -0.06   0.03   0.08     0.17  -0.00   0.00    -0.01   0.00   0.00
  19   1    -0.05   0.05  -0.08     0.06  -0.16  -0.00    -0.00   0.00  -0.00
  20   8     0.21  -0.14   0.00    -0.08   0.06   0.00     0.01  -0.01  -0.00
  21   1     0.09  -0.07   0.00     0.05  -0.04   0.00     0.00  -0.00   0.00
                      7                      8                      9
                        a                      a                      a 
 Frequencies --   253.6869               290.6287               306.2978
 Red. masses --     9.4571                 2.1229                11.6547
 Frc consts  --     0.0000                 0.0000                 0.0000
 IR Inten    --     0.1925                 0.4850                 0.2158
 Raman Activ --     0.0000                 0.0000                 0.0000
 Depolar     --     0.0000                 0.0000                 0.0000
 Atom AN      X      Y      Z        X      Y      Z        X      Y      Z
   1   6    -0.12  -0.17   0.23     0.00  -0.00   0.00     0.03   0.05   0.45
   2   1    -0.04  -0.05   0.16     0.00  -0.00   0.00     0.01   0.01   0.15
   3   1    -0.11  -0.16  -0.02     0.00  -0.00   0.00    -0.01  -0.01   0.11
   4   1    -0.04  -0.05   0.16     0.00  -0.00   0.00     0.01   0.01   0.15
   5   6     0.18   0.25  -0.13    -0.00   0.00   0.00     0.03   0.05   0.39
   6   1     0.05   0.07  -0.08    -0.00   0.00  -0.00     0.01   0.01   0.13
   7   1     0.05   0.07  -0.08    -0.00   0.00   0.00     0.01   0.01   0.13
   8   6     0.20   0.29  -0.10    -0.00   0.00  -0.00    -0.07  -0.10   0.18
   9   1     0.06   0.08  -0.06    -0.01  -0.00  -0.01    -0.02  -0.03   0.05
  10   1     0.06   0.08  -0.06    -0.00   0.01   0.00    -0.02  -0.03   0.05
  11   6    -0.01  -0.02   0.12     0.03  -0.02   0.00    -0.02  -0.02  -0.01
  12   1    -0.00  -0.00   0.10     0.00  -0.01   0.01    -0.01  -0.01  -0.01
  13   1    -0.00  -0.00   0.10     0.01  -0.00  -0.01    -0.01  -0.01  -0.01
  14   6    -0.23  -0.32  -0.10     0.07  -0.05  -0.00    -0.03  -0.04  -0.15
  15   1    -0.06  -0.09  -0.06     0.07   0.00   0.01    -0.01  -0.01  -0.03
  16   1    -0.07  -0.09  -0.06     0.02  -0.07  -0.01    -0.01  -0.01  -0.03
  17   6    -0.15  -0.22  -0.19    -0.09   0.07  -0.00     0.05   0.08  -0.34
  18   1    -0.04  -0.06  -0.12    -0.04   0.02  -0.01     0.02   0.02  -0.10
  19   1    -0.04  -0.06  -0.12    -0.03   0.03   0.01     0.02   0.02  -0.10
  20   8     0.15   0.20   0.20    -0.20   0.14  -0.00     0.00   0.00  -0.55
  21   1     0.10   0.15  -0.03     0.78  -0.55   0.00    -0.03  -0.03  -0.11
                     10                     11                     12
                        a                      a                      a 
 Frequencies --   424.7945               487.5724               770.3462
 Red. masses --     8.9433                10.3198                 1.6310
 Frc consts  --     0.0000                 0.0000                 0.0000
 IR Inten    --     0.1373                 0.2527                 0.0329
 Raman Activ --     0.0000                 0.0000                 0.0000
 Depolar     --     0.0000                 0.0000                 0.0000
 Atom AN      X      Y      Z        X      Y      Z        X      Y      Z
   1   6    -0.04  -0.05   0.17    -0.03  -0.04  -0.28     0.01  -0.00   0.00
   2   1    -0.02  -0.02   0.15    -0.00  -0.01  -0.13    -0.08  -0.03  -0.07
   3   1    -0.09  -0.13  -0.05     0.03   0.04  -0.04    -0.02   0.02   0.00
   4   1    -0.01  -0.02   0.15    -0.01  -0.01  -0.13    -0.00   0.08   0.07
   5   6     0.20   0.28  -0.13    -0.06  -0.08  -0.14     0.08  -0.06   0.00
   6   1     0.05   0.08  -0.04    -0.01  -0.02  -0.08    -0.26  -0.10   0.05
   7   1     0.06   0.07  -0.04    -0.02  -0.02  -0.08     0.01   0.28  -0.05
   8   6    -0.03  -0.04  -0.34     0.15   0.21   0.19     0.12  -0.08   0.00
   9   1    -0.01  -0.01  -0.18     0.04   0.06   0.07    -0.37  -0.15  -0.01
  10   1    -0.01  -0.01  -0.18     0.04   0.05   0.07     0.02   0.40   0.01
  11   6    -0.24  -0.34  -0.07    -0.04  -0.05   0.45     0.11  -0.08   0.00
  12   1    -0.06  -0.09  -0.03    -0.01  -0.01   0.20    -0.35  -0.15  -0.02
  13   1    -0.07  -0.09  -0.03    -0.01  -0.01   0.20     0.02   0.38   0.02
  14   6     0.04   0.06   0.28    -0.14  -0.19   0.29     0.07  -0.05   0.00
  15   1     0.01   0.02   0.17    -0.03  -0.05   0.14    -0.23  -0.09   0.06
  16   1     0.01   0.01   0.17    -0.04  -0.05   0.14     0.01   0.25  -0.06
  17   6     0.18   0.25   0.18     0.11   0.15  -0.09     0.01  -0.01  -0.00
  18   1     0.05   0.07   0.09     0.03   0.04  -0.05    -0.08  -0.03  -0.04
  19   1     0.05   0.07   0.09     0.03   0.04  -0.05    -0.00   0.08   0.04
  20   8    -0.06  -0.09  -0.15     0.01   0.01  -0.42    -0.01   0.01   0.00
  21   1    -0.08  -0.11   0.04    -0.05  -0.07  -0.04     0.01  -0.00   0.00
                     13                     14                     15
                        a                      a                      a 
 Frequencies --   786.7321               836.6447               913.5850
 Red. masses --     1.9964                 2.5272                 2.7130
 Frc consts  --     0.0000                 0.0000                 0.0000
 IR Inten    --     0.0558                 0.0724                 0.1287
 Raman Activ --     0.0000                 0.0000                 0.0000
 Depolar     --     0.0000                 0.0000                 0.0000
 Atom AN      X      Y      Z        X      Y      Z        X      Y      Z
   1   6     0.02  -0.02   0.00     0.06  -0.05   0.00     0.11  -0.08  -0.00
   2   1    -0.13  -0.05  -0.13    -0.16  -0.07  -0.19    -0.17  -0.08  -0.22
   3   1    -0.05   0.04   0.00    -0.09   0.06   0.00    -0.10   0.07  -0.00
   4   1    -0.00   0.14   0.13     0.01   0.18   0.19     0.02   0.19   0.22
   5   6     0.14  -0.10   0.00     0.14  -0.10   0.00     0.03  -0.02  -0.00
   6   1    -0.32  -0.14   0.01    -0.22  -0.11  -0.10    -0.04  -0.02  -0.24
   7   1     0.03   0.35  -0.01     0.03   0.25   0.10     0.01   0.04   0.24
   8   6     0.08  -0.05   0.00    -0.11   0.08  -0.00    -0.19   0.14  -0.00
   9   1    -0.16  -0.07   0.10     0.16   0.08   0.13     0.21   0.12  -0.08
  10   1     0.02   0.18  -0.10    -0.02  -0.18  -0.13    -0.04  -0.24   0.08
  11   6    -0.08   0.06  -0.00    -0.14   0.10  -0.00     0.14  -0.10   0.00
  12   1     0.18   0.08  -0.10     0.20   0.11   0.11    -0.15  -0.09   0.17
  13   1    -0.02  -0.20   0.10    -0.03  -0.23  -0.11     0.03   0.17  -0.17
  14   6    -0.15   0.11  -0.00     0.12  -0.08   0.00     0.04  -0.03   0.00
  15   1     0.35   0.15  -0.02    -0.20  -0.10  -0.15    -0.03  -0.02   0.27
  16   1    -0.03  -0.38   0.02     0.03   0.23   0.15     0.01   0.03  -0.27
  17   6    -0.06   0.04   0.00     0.13  -0.09   0.00    -0.17   0.12  -0.00
  18   1     0.19   0.07   0.10    -0.26  -0.12  -0.14     0.22   0.12   0.11
  19   1    -0.01  -0.20  -0.10     0.03   0.28   0.14    -0.03  -0.25  -0.11
  20   8     0.03  -0.02  -0.00    -0.05   0.04   0.00     0.05  -0.03  -0.00
  21   1    -0.01   0.01  -0.00     0.01  -0.01   0.00    -0.01   0.00  -0.00
                     16                     17                     18
                        a                      a                      a 
 Frequencies --   939.4821               994.9314              1023.5279
 Red. masses --     6.2073                 2.1190                 8.2753
 Frc consts  --     0.0000                 0.0000                 0.0000
 IR Inten    --     0.0776                 0.0584                 0.1241
 Raman Activ --     0.0000                 0.0000                 0.0000
 Depolar     --     0.0000                 0.0000                 0.0000
 Atom AN      X      Y      Z        X      Y      Z        X      Y      Z
   1   6     0.06   0.08  -0.36    -0.12   0.08  -0.00     0.05   0.07  -0.06
   2   1    -0.03  -0.01   0.22     0.13   0.07   0.18    -0.00   0.01   0.09
   3   1    -0.24  -0.34  -0.40     0.07  -0.05  -0.00    -0.07  -0.10  -0.11
   4   1     0.00  -0.03   0.22    -0.02  -0.15  -0.18     0.01  -0.00   0.09
   5   6     0.16   0.23  -0.09     0.11  -0.08   0.00    -0.03  -0.05   0.02
   6   1     0.04   0.06   0.11    -0.10  -0.06   0.26    -0.01  -0.01   0.08
   7   1     0.04   0.06   0.12     0.02   0.11  -0.26    -0.01  -0.01   0.08
   8   6    -0.21  -0.30   0.22    -0.02   0.01   0.00     0.01   0.02   0.03
   9   1    -0.05  -0.08   0.11     0.02   0.01   0.35     0.01   0.01   0.09
  10   1    -0.06  -0.08   0.11    -0.00  -0.02  -0.35     0.00   0.01   0.09
  11   6     0.06   0.08   0.16    -0.08   0.06  -0.00     0.07   0.10  -0.18
  12   1     0.01   0.02   0.01     0.07   0.05   0.30     0.01   0.02   0.02
  13   1     0.01   0.02   0.01    -0.02  -0.09  -0.30     0.02   0.02   0.02
  14   6     0.05   0.07   0.05     0.13  -0.09   0.00    -0.28  -0.40  -0.28
  15   1     0.01   0.02  -0.02    -0.11  -0.07   0.22    -0.07  -0.10  -0.09
  16   1     0.01   0.02  -0.02     0.03   0.13  -0.22    -0.07  -0.10  -0.09
  17   6    -0.07  -0.09  -0.04    -0.12   0.09  -0.00     0.28   0.39   0.15
  18   1    -0.02  -0.02  -0.02     0.13   0.07   0.05     0.06   0.09   0.02
  19   1    -0.02  -0.02  -0.02    -0.03  -0.15  -0.05     0.07   0.09   0.02
  20   8     0.01   0.02  -0.05     0.03  -0.02  -0.00    -0.01  -0.02   0.14
  21   1     0.03   0.04  -0.04    -0.00   0.00  -0.00    -0.21  -0.29   0.26
                     19                     20                     21
                        a                      a                      a 
 Frequencies --  1052.7648              1088.2521              1103.6591
 Red. masses --    11.2836                10.3710                 8.3880
 Frc consts  --     0.0000                 0.0000                 0.0000
 IR Inten    --     0.5655                 0.8989                 0.1530
 Raman Activ --     0.0000                 0.0000                 0.0000
 Depolar     --     0.0000                 0.0000                 0.0000
 Atom AN      X      Y      Z        X      Y      Z        X      Y      Z
   1   6    -0.12  -0.18  -0.22    -0.15  -0.21  -0.17    -0.05  -0.08  -0.16
   2   1    -0.03  -0.04  -0.13    -0.03  -0.05  -0.16    -0.02  -0.02  -0.03
   3   1     0.00   0.01  -0.02     0.03   0.04   0.03    -0.03  -0.04  -0.06
   4   1    -0.03  -0.04  -0.13    -0.04  -0.04  -0.16    -0.01  -0.03  -0.03
   5   6     0.14   0.20   0.21     0.13   0.19   0.27     0.04   0.06   0.20
   6   1     0.04   0.06   0.00     0.03   0.05   0.07     0.02   0.02   0.08
   7   1     0.04   0.06   0.00     0.03   0.05   0.07     0.01   0.02   0.08
   8   6     0.11   0.16   0.35    -0.02  -0.03  -0.01     0.14   0.20   0.18
   9   1     0.03   0.04   0.04    -0.00  -0.01  -0.11     0.05   0.06   0.13
  10   1     0.03   0.04   0.04    -0.00  -0.00  -0.11     0.04   0.07   0.13
  11   6    -0.26  -0.37  -0.00    -0.02  -0.03   0.07     0.03   0.04  -0.56
  12   1    -0.07  -0.10  -0.02    -0.01  -0.01  -0.01     0.01   0.01  -0.25
  13   1    -0.07  -0.10  -0.02    -0.01  -0.01  -0.01     0.01   0.01  -0.25
  14   6     0.12   0.17  -0.30    -0.03  -0.04  -0.15    -0.11  -0.16   0.34
  15   1     0.03   0.05  -0.05    -0.01  -0.02  -0.21    -0.04  -0.04   0.24
  16   1     0.03   0.05  -0.05    -0.01  -0.02  -0.21    -0.03  -0.05   0.24
  17   6     0.12   0.16  -0.25    -0.11  -0.15   0.52    -0.08  -0.11   0.04
  18   1     0.02   0.03   0.01    -0.01  -0.02   0.09    -0.02  -0.03  -0.02
  19   1     0.02   0.03   0.01    -0.01  -0.01   0.09    -0.02  -0.03  -0.02
  20   8    -0.11  -0.15   0.25     0.19   0.26  -0.33     0.02   0.03  -0.09
  21   1     0.01   0.02   0.02    -0.06  -0.08   0.04     0.04   0.05  -0.06
                     22                     23                     24
                        a                      a                      a 
 Frequencies --  1112.8972              1129.4883              1163.1494
 Red. masses --     9.0123                 7.5384                 5.1069
 Frc consts  --     0.0000                 0.0000                 0.0000
 IR Inten    --     0.4649                 0.2413                 0.3086
 Raman Activ --     0.0000                 0.0000                 0.0000
 Depolar     --     0.0000                 0.0000                 0.0000
 Atom AN      X      Y      Z        X      Y      Z        X      Y      Z
   1   6    -0.13  -0.19  -0.19     0.10   0.14  -0.13    -0.04   0.03  -0.00
   2   1    -0.04  -0.05  -0.11    -0.02   0.01   0.19     0.03   0.02   0.04
   3   1    -0.01  -0.01  -0.02    -0.12  -0.17  -0.20     0.02  -0.01  -0.00
   4   1    -0.03  -0.05  -0.11     0.02  -0.01   0.19    -0.01  -0.03  -0.04
   5   6     0.05   0.07   0.40    -0.24  -0.33   0.20     0.07  -0.05   0.00
   6   1     0.01   0.02   0.24    -0.06  -0.08   0.23    -0.05  -0.03   0.04
   7   1     0.01   0.01   0.24    -0.06  -0.08   0.23     0.02   0.05  -0.04
   8   6    -0.04  -0.06  -0.40     0.23   0.32  -0.23    -0.10   0.07  -0.00
   9   1    -0.00  -0.01  -0.21     0.06   0.08  -0.02     0.07   0.05   0.07
  10   1    -0.01  -0.01  -0.21     0.06   0.08  -0.02    -0.02  -0.08  -0.07
  11   6     0.18   0.26   0.13    -0.14  -0.20  -0.02     0.16  -0.12   0.00
  12   1     0.05   0.07   0.09    -0.03  -0.05   0.14    -0.11  -0.08   0.13
  13   1     0.05   0.07   0.09    -0.03  -0.04   0.14     0.04   0.13  -0.13
  14   6    -0.03  -0.04   0.15     0.08   0.12  -0.14    -0.25   0.18  -0.00
  15   1     0.00  -0.00   0.08     0.02   0.03   0.01     0.16   0.12   0.17
  16   1    -0.00   0.00   0.08     0.02   0.03   0.01    -0.06  -0.19  -0.17
  17   6     0.07   0.10  -0.28    -0.05  -0.07   0.11     0.34  -0.24   0.00
  18   1     0.00   0.01  -0.08    -0.00  -0.01   0.11    -0.28  -0.18   0.28
  19   1     0.01   0.01  -0.08    -0.01  -0.01   0.11     0.08   0.33  -0.28
  20   8    -0.09  -0.13   0.16     0.02   0.03  -0.07    -0.13   0.09  -0.00
  21   1    -0.00  -0.00   0.02     0.08   0.12  -0.11    -0.01   0.01   0.00
                     25                     26                     27
                        a                      a                      a 
 Frequencies --  1207.5363              1208.5394              1248.1695
 Red. masses --     3.5296                 5.5545                 3.5506
 Frc consts  --     0.0000                 0.0000                 0.0000
 IR Inten    --     0.2432                 0.0620                 0.0867
 Raman Activ --     0.0000                 0.0000                 0.0000
 Depolar     --     0.0000                 0.0000                 0.0000
 Atom AN      X      Y      Z        X      Y      Z        X      Y      Z
   1   6     0.04   0.07  -0.03     0.21  -0.15  -0.00     0.19  -0.13   0.00
   2   1    -0.00   0.01   0.07    -0.15  -0.10  -0.19    -0.12  -0.08  -0.15
   3   1    -0.04  -0.05  -0.06    -0.09   0.06  -0.00    -0.07   0.05   0.00
   4   1     0.01  -0.01   0.06     0.04   0.17   0.19     0.04   0.14   0.15
   5   6    -0.08  -0.12   0.06    -0.32   0.22   0.00    -0.15   0.11  -0.00
   6   1    -0.02  -0.03  -0.01     0.19   0.14   0.04     0.08   0.07   0.31
   7   1    -0.02  -0.02  -0.01    -0.07  -0.22  -0.04    -0.04  -0.10  -0.31
   8   6     0.09   0.13   0.04     0.27  -0.19   0.00    -0.06   0.05  -0.00
   9   1     0.02   0.03  -0.12    -0.16  -0.12   0.06     0.04   0.03   0.19
  10   1     0.02   0.02  -0.12     0.06   0.19  -0.06    -0.02  -0.04  -0.19
  11   6    -0.06  -0.09   0.10    -0.21   0.14   0.00     0.23  -0.16   0.00
  12   1    -0.01  -0.02  -0.20     0.12   0.09   0.12    -0.13  -0.10   0.20
  13   1    -0.01  -0.01  -0.20    -0.05  -0.15  -0.12     0.05   0.15  -0.20
  14   6     0.11   0.15   0.24     0.07  -0.05   0.00    -0.19   0.13  -0.00
  15   1     0.03   0.04  -0.17    -0.04  -0.03   0.20     0.09   0.07  -0.26
  16   1     0.02   0.04  -0.16     0.01   0.05  -0.21    -0.04  -0.11   0.26
  17   6    -0.08  -0.12  -0.09     0.07  -0.06  -0.00    -0.04   0.03  -0.00
  18   1    -0.03  -0.03  -0.34    -0.06  -0.04   0.17     0.04   0.03  -0.22
  19   1    -0.02  -0.04  -0.34     0.02   0.07  -0.18    -0.02  -0.04   0.22
  20   8     0.07   0.10   0.04    -0.05   0.03   0.00     0.04  -0.03   0.00
  21   1    -0.28  -0.39   0.35    -0.01  -0.00   0.01     0.01  -0.00  -0.00
                     28                     29                     30
                        a                      a                      a 
 Frequencies --  1259.1434              1268.7349              1285.9845
 Red. masses --     3.7547                 1.4599                 2.4188
 Frc consts  --     0.0000                 0.0000                 0.0000
 IR Inten    --     0.3083                 0.0168                 0.0177
 Raman Activ --     0.0000                 0.0000                 0.0000
 Depolar     --     0.0000                 0.0000                 0.0000
 Atom AN      X      Y      Z        X      Y      Z        X      Y      Z
   1   6    -0.06  -0.09   0.04     0.00  -0.00  -0.00     0.12  -0.09   0.00
   2   1     0.02  -0.01  -0.06    -0.01  -0.00   0.00    -0.06  -0.05  -0.09
   3   1     0.05   0.07   0.09    -0.01   0.01  -0.00    -0.03   0.02   0.00
   4   1    -0.01   0.01  -0.06    -0.00   0.01  -0.00     0.03   0.08   0.09
   5   6     0.08   0.11  -0.13    -0.08   0.05   0.00     0.05  -0.04   0.00
   6   1     0.01   0.02   0.15     0.04   0.03  -0.12    -0.03  -0.02   0.47
   7   1     0.02   0.02   0.15    -0.02  -0.05   0.12     0.01   0.03  -0.47
   8   6    -0.04  -0.05  -0.18    -0.03   0.02   0.00    -0.22   0.16  -0.00
   9   1    -0.01  -0.01   0.32     0.01   0.01   0.30     0.11   0.09  -0.16
  10   1    -0.01  -0.01   0.32    -0.01  -0.02  -0.30    -0.05  -0.13   0.16
  11   6    -0.04  -0.05  -0.17     0.02  -0.02   0.00    -0.05   0.03  -0.00
  12   1    -0.00  -0.01   0.32    -0.01  -0.01  -0.28     0.02   0.02  -0.34
  13   1    -0.01  -0.00   0.33     0.00   0.02   0.28    -0.01  -0.02   0.34
  14   6     0.11   0.16  -0.12    -0.08   0.06  -0.00     0.12  -0.09  -0.00
  15   1     0.02   0.04   0.21     0.05   0.05   0.37    -0.06  -0.05   0.14
  16   1     0.03   0.03   0.21    -0.02  -0.07  -0.37     0.03   0.07  -0.14
  17   6    -0.12  -0.17  -0.03     0.10  -0.07   0.00     0.01  -0.01  -0.00
  18   1    -0.02  -0.04  -0.10    -0.03  -0.03  -0.40    -0.01  -0.01   0.09
  19   1    -0.03  -0.03  -0.10     0.02   0.04   0.40     0.01   0.01  -0.09
  20   8     0.09   0.13  -0.00     0.04  -0.03   0.00    -0.02   0.01  -0.00
  21   1    -0.18  -0.26   0.23     0.02  -0.01  -0.00    -0.00   0.00   0.00
                     31                     32                     33
                        a                      a                      a 
 Frequencies --  1289.5624              1306.3176              1353.3218
 Red. masses --     2.0366                 3.9517                 4.4483
 Frc consts  --     0.0000                 0.0000                 0.0000
 IR Inten    --     0.0081                 0.2648                 0.1331
 Raman Activ --     0.0000                 0.0000                 0.0000
 Depolar     --     0.0000                 0.0000                 0.0000
 Atom AN      X      Y      Z        X      Y      Z        X      Y      Z
   1   6     0.01  -0.01   0.00     0.06   0.09  -0.04     0.05   0.07  -0.03
   2   1    -0.01  -0.00  -0.00    -0.04  -0.00   0.03    -0.06  -0.01  -0.02
   3   1    -0.02   0.01   0.00    -0.06  -0.09  -0.10    -0.06  -0.09  -0.10
   4   1    -0.00   0.01   0.00     0.01  -0.03   0.03     0.01  -0.06  -0.02
   5   6    -0.10   0.07  -0.00    -0.04  -0.05   0.24     0.01   0.01   0.34
   6   1     0.05   0.04  -0.13    -0.00  -0.01  -0.30    -0.01  -0.01  -0.35
   7   1    -0.02  -0.06   0.13    -0.01  -0.01  -0.30    -0.00  -0.02  -0.35
   8   6    -0.06   0.04  -0.00    -0.04  -0.05   0.19    -0.04  -0.06  -0.07
   9   1     0.03   0.03   0.42     0.00  -0.01  -0.29     0.02  -0.00   0.08
  10   1    -0.01  -0.04  -0.42    -0.01   0.00  -0.29    -0.01   0.02   0.08
  11   6     0.14  -0.10   0.00     0.06   0.09  -0.03    -0.01  -0.02  -0.31
  12   1    -0.06  -0.06  -0.29    -0.01   0.01   0.08     0.01   0.00   0.33
  13   1     0.04   0.08   0.29     0.01  -0.00   0.08    -0.00   0.01   0.33
  14   6     0.15  -0.11   0.00     0.01   0.02  -0.30     0.03   0.04   0.22
  15   1    -0.07  -0.07  -0.21     0.00   0.01   0.37    -0.02  -0.00  -0.20
  16   1     0.04   0.09   0.21     0.01   0.01   0.37     0.00  -0.02  -0.20
  17   6    -0.08   0.06  -0.00    -0.09  -0.12  -0.06     0.05   0.06   0.12
  18   1     0.02   0.02   0.33    -0.00  -0.02   0.11     0.00   0.01  -0.21
  19   1    -0.01  -0.03  -0.33    -0.02  -0.01   0.11     0.01   0.01  -0.21
  20   8    -0.04   0.03  -0.00     0.08   0.11  -0.01    -0.06  -0.08   0.01
  21   1    -0.01   0.01  -0.00    -0.11  -0.15   0.14     0.07   0.09  -0.09
                     34                     35                     36
                        a                      a                      a 
 Frequencies --  1377.1864              1383.5575              1416.1272
 Red. masses --     5.5389                 4.8923                 3.1814
 Frc consts  --     0.0000                 0.0000                 0.0000
 IR Inten    --     0.0446                 0.2595                 0.0339
 Raman Activ --     0.0000                 0.0000                 0.0000
 Depolar     --     0.0000                 0.0000                 0.0000
 Atom AN      X      Y      Z        X      Y      Z        X      Y      Z
   1   6     0.02   0.03  -0.05    -0.01  -0.01  -0.00    -0.13  -0.18  -0.37
   2   1    -0.04  -0.01   0.01     0.01   0.00   0.01     0.22   0.05   0.46
   3   1    -0.02  -0.03  -0.04     0.01   0.02   0.01     0.25   0.35   0.27
   4   1     0.00  -0.04   0.01    -0.00   0.01   0.01    -0.02   0.22   0.46
   5   6     0.02   0.03   0.31    -0.00  -0.00  -0.03    -0.00  -0.00   0.08
   6   1    -0.02  -0.00  -0.25     0.00   0.00   0.03     0.05   0.02  -0.08
   7   1     0.00  -0.02  -0.25     0.00   0.00   0.03     0.00   0.05  -0.08
   8   6     0.00   0.00  -0.43     0.00   0.00  -0.01    -0.01  -0.02  -0.00
   9   1    -0.00   0.00   0.37    -0.01  -0.00  -0.01    -0.00  -0.01  -0.01
  10   1     0.00  -0.00   0.37     0.00  -0.01  -0.01    -0.00  -0.01  -0.01
  11   6    -0.02  -0.02   0.33     0.01   0.02   0.15     0.01   0.01  -0.03
  12   1     0.01  -0.00  -0.28    -0.01  -0.00  -0.10    -0.00   0.00   0.03
  13   1    -0.01   0.01  -0.28     0.00  -0.01  -0.10     0.00   0.00   0.03
  14   6    -0.01  -0.02  -0.11     0.01   0.01  -0.32     0.00   0.00   0.01
  15   1     0.02   0.00   0.06    -0.02   0.00   0.24    -0.00  -0.00  -0.01
  16   1    -0.00   0.02   0.06     0.01  -0.02   0.24    -0.00  -0.00  -0.01
  17   6    -0.01  -0.02  -0.05     0.05   0.07   0.43     0.00   0.00  -0.00
  18   1    -0.00  -0.01   0.09     0.02   0.03  -0.48    -0.00   0.00   0.00
  19   1    -0.01  -0.00   0.09     0.02   0.03  -0.48     0.00  -0.00   0.00
  20   8     0.02   0.03  -0.00    -0.09  -0.13   0.00     0.00   0.00  -0.00
  21   1    -0.02  -0.03   0.03     0.11   0.16  -0.15    -0.00  -0.00   0.00
                     37                     38                     39
                        a                      a                      a 
 Frequencies --  1492.8422              1494.3552              1497.3688
 Red. masses --     1.9441                 1.8672                 1.8338
 Frc consts  --     0.0000                 0.0000                 0.0000
 IR Inten    --     0.0590                 0.0888                 0.0519
 Raman Activ --     0.0000                 0.0000                 0.0000
 Depolar     --     0.0000                 0.0000                 0.0000
 Atom AN      X      Y      Z        X      Y      Z        X      Y      Z
   1   6    -0.00  -0.00  -0.00    -0.01  -0.02   0.00     0.03   0.04  -0.00
   2   1     0.00   0.00   0.01     0.08   0.03  -0.01    -0.14  -0.05   0.00
   3   1     0.01   0.01   0.01    -0.02  -0.02  -0.02     0.02   0.03   0.03
   4   1     0.00   0.00   0.01    -0.00   0.08  -0.01     0.00  -0.15   0.01
   5   6     0.02   0.03  -0.01     0.04   0.05   0.01    -0.11  -0.16  -0.00
   6   1    -0.09  -0.03   0.01    -0.14  -0.05  -0.01     0.46   0.15   0.00
   7   1     0.00  -0.09   0.01     0.00  -0.15  -0.01    -0.01   0.49  -0.00
   8   6    -0.06  -0.08   0.00     0.07   0.10   0.02    -0.00  -0.01  -0.03
   9   1     0.22   0.07  -0.01    -0.27  -0.09  -0.02    -0.00  -0.00   0.02
  10   1    -0.01   0.23  -0.01     0.01  -0.28  -0.02    -0.00  -0.00   0.02
  11   6    -0.03  -0.04   0.04    -0.07  -0.10  -0.02     0.07   0.09   0.00
  12   1     0.13   0.04  -0.02     0.29   0.09   0.01    -0.26  -0.08   0.01
  13   1    -0.00   0.14  -0.02    -0.01   0.30   0.01     0.01  -0.27   0.01
  14   6     0.13   0.19  -0.02    -0.06  -0.08  -0.02    -0.00  -0.00   0.00
  15   1    -0.51  -0.16   0.01     0.22   0.07   0.02     0.04   0.02  -0.00
  16   1     0.02  -0.54   0.01    -0.01   0.23   0.02     0.00   0.04  -0.00
  17   6     0.07   0.10  -0.01     0.10   0.14   0.04     0.08   0.11   0.01
  18   1    -0.28  -0.10   0.03    -0.43  -0.15  -0.00    -0.34  -0.12   0.00
  19   1     0.00  -0.30   0.03     0.00  -0.45  -0.00     0.00  -0.36   0.00
  20   8     0.01   0.02  -0.01     0.01   0.02  -0.02     0.01   0.02  -0.01
  21   1    -0.00  -0.00   0.01     0.00   0.00  -0.00     0.00   0.00  -0.00
                     40                     41                     42
                        a                      a                      a 
 Frequencies --  1498.9208              1502.8406              1504.4617
 Red. masses --     2.0106                 1.7943                 1.5319
 Frc consts  --     0.0000                 0.0000                 0.0000
 IR Inten    --     0.0439                 0.0822                 0.0268
 Raman Activ --     0.0000                 0.0000                 0.0000
 Depolar     --     0.0000                 0.0000                 0.0000
 Atom AN      X      Y      Z        X      Y      Z        X      Y      Z
   1   6    -0.02  -0.03   0.01     0.01   0.01   0.01     0.17  -0.12   0.00
   2   1     0.11   0.04  -0.03    -0.04  -0.01  -0.01    -0.15  -0.07   0.44
   3   1    -0.03  -0.04  -0.04    -0.01  -0.00  -0.00    -0.58   0.41  -0.00
   4   1    -0.00   0.11  -0.03     0.00  -0.04  -0.01     0.02   0.16  -0.44
   5   6     0.02   0.02   0.04    -0.09  -0.13   0.00     0.04  -0.03  -0.00
   6   1    -0.06  -0.02  -0.02     0.38   0.12  -0.01    -0.01  -0.02  -0.02
   7   1     0.00  -0.06  -0.02    -0.01   0.40  -0.01     0.01   0.01   0.02
   8   6     0.13   0.19  -0.02     0.03   0.05  -0.00    -0.00   0.00  -0.00
   9   1    -0.50  -0.16   0.01    -0.18  -0.06   0.00     0.00   0.00  -0.02
  10   1     0.01  -0.52   0.01     0.00  -0.19   0.00     0.00   0.00   0.02
  11   6     0.07   0.10  -0.01    -0.10  -0.15   0.00    -0.00   0.00   0.00
  12   1    -0.25  -0.08   0.01     0.43   0.14  -0.00     0.00   0.00   0.00
  13   1     0.01  -0.26   0.01    -0.01   0.45  -0.00    -0.00  -0.00  -0.00
  14   6     0.08   0.11   0.02     0.03   0.04  -0.01    -0.00  -0.00  -0.00
  15   1    -0.29  -0.09  -0.01    -0.14  -0.05   0.01     0.00   0.00   0.00
  16   1     0.01  -0.30  -0.01     0.00  -0.14   0.01    -0.00   0.00  -0.00
  17   6    -0.01  -0.01  -0.02    -0.04  -0.06  -0.01     0.00   0.00   0.00
  18   1     0.04   0.01   0.01     0.19   0.07   0.00    -0.00  -0.00   0.00
  19   1     0.00   0.04   0.01     0.00   0.21   0.00     0.00  -0.00  -0.00
  20   8    -0.00  -0.00   0.00    -0.01  -0.01   0.01    -0.00   0.00  -0.00
  21   1    -0.00  -0.00   0.00    -0.00  -0.00   0.00     0.00  -0.00   0.00
                     43                     44                     45
                        a                      a                      a 
 Frequencies --  1507.5206              2849.0685              2882.9320
 Red. masses --     1.6574                 1.9743                 1.4191
 Frc consts  --     0.0000                 0.0000                 0.0000
 IR Inten    --     0.0207                 0.3892                 0.3143
 Raman Activ --     0.0000                 0.0000                 0.0000
 Depolar     --     0.0000                 0.0000                 0.0000
 Atom AN      X      Y      Z        X      Y      Z        X      Y      Z
   1   6    -0.10  -0.14   0.11    -0.00   0.00  -0.00    -0.00  -0.00   0.00
   2   1     0.57   0.19  -0.14     0.00  -0.00   0.00    -0.00   0.00  -0.00
   3   1    -0.15  -0.22  -0.17    -0.00   0.00   0.00     0.00   0.00  -0.00
   4   1    -0.01   0.60  -0.14     0.00   0.00  -0.00    -0.00  -0.00  -0.00
   5   6    -0.06  -0.09   0.05    -0.00   0.00  -0.00    -0.00  -0.00  -0.00
   6   1     0.15   0.04  -0.03     0.00  -0.00  -0.00    -0.00   0.00   0.00
   7   1    -0.01   0.15  -0.03     0.00  -0.00   0.00     0.00  -0.00   0.00
   8   6    -0.03  -0.04  -0.02    -0.00   0.00   0.00    -0.00  -0.00  -0.00
   9   1     0.12   0.04   0.01     0.00  -0.00   0.00    -0.00   0.00  -0.00
  10   1    -0.00   0.13   0.01     0.00  -0.00  -0.00     0.00  -0.00  -0.00
  11   6     0.00   0.00   0.01    -0.01   0.00  -0.00    -0.01  -0.01  -0.00
  12   1    -0.03  -0.01  -0.00     0.00  -0.01  -0.00    -0.01   0.02   0.00
  13   1    -0.00  -0.03  -0.00     0.01  -0.00   0.00     0.02  -0.00   0.00
  14   6    -0.01  -0.01   0.00    -0.01   0.00  -0.00    -0.00  -0.00   0.00
  15   1     0.03   0.01  -0.00     0.01  -0.04  -0.00    -0.01   0.03  -0.00
  16   1    -0.00   0.03  -0.00     0.04   0.00   0.00     0.03  -0.00  -0.00
  17   6     0.00   0.01   0.00     0.24  -0.17   0.00     0.11   0.16   0.02
  18   1    -0.02  -0.01  -0.00    -0.20   0.64   0.01     0.26  -0.64  -0.00
  19   1    -0.00  -0.02  -0.00    -0.67  -0.02  -0.01    -0.69   0.04  -0.00
  20   8     0.00   0.00  -0.00     0.01  -0.00   0.00     0.01   0.01  -0.02
  21   1     0.00   0.00  -0.00    -0.00   0.00  -0.00     0.00   0.00  -0.00
                     46                     47                     48
                        a                      a                      a 
 Frequencies --  2956.5756              2962.0970              2974.2142
 Red. masses --     1.9137                 1.9605                 1.4671
 Frc consts  --     0.0000                 0.0000                 0.0000
 IR Inten    --     0.1193                 0.0171                 0.0855
 Raman Activ --     0.0000                 0.0000                 0.0000
 Depolar     --     0.0000                 0.0000                 0.0000
 Atom AN      X      Y      Z        X      Y      Z        X      Y      Z
   1   6     0.00  -0.00  -0.00     0.01  -0.01  -0.00     0.00   0.01  -0.01
   2   1    -0.00   0.01   0.00    -0.01   0.05   0.00     0.01  -0.02  -0.00
   3   1     0.00  -0.00   0.00     0.00  -0.00   0.00    -0.01  -0.01   0.02
   4   1    -0.01  -0.00  -0.00    -0.05  -0.00  -0.00    -0.02   0.00  -0.00
   5   6    -0.05   0.03  -0.00    -0.19   0.14  -0.00    -0.04  -0.06   0.00
   6   1     0.04  -0.13   0.00     0.16  -0.52   0.00    -0.09   0.23   0.00
   7   1     0.14   0.01  -0.00     0.55   0.02  -0.00     0.24  -0.01   0.00
   8   6     0.12  -0.08   0.00     0.09  -0.06   0.00    -0.02  -0.03   0.00
   9   1    -0.10   0.33  -0.00    -0.08   0.25  -0.00    -0.05   0.12   0.00
  10   1    -0.35  -0.02   0.00    -0.26  -0.01   0.00     0.13  -0.00   0.00
  11   6    -0.19   0.14  -0.00     0.10  -0.07   0.00     0.11   0.15  -0.00
  12   1     0.16  -0.53   0.00    -0.08   0.27  -0.00     0.23  -0.59   0.00
  13   1     0.56   0.02  -0.00    -0.28  -0.01   0.00    -0.63   0.02   0.00
  14   6     0.03  -0.02   0.00    -0.03   0.02  -0.00    -0.01  -0.01  -0.00
  15   1    -0.03   0.10  -0.00     0.02  -0.08   0.00    -0.03   0.07  -0.00
  16   1    -0.10  -0.01   0.00     0.08   0.00  -0.00     0.07  -0.00  -0.00
  17   6     0.00  -0.00  -0.00    -0.00   0.00  -0.00     0.00   0.00   0.00
  18   1     0.00  -0.00  -0.00     0.00   0.00   0.00     0.01  -0.02  -0.00
  19   1     0.00   0.00   0.00    -0.00  -0.00  -0.00    -0.02   0.00  -0.00
  20   8     0.00  -0.00  -0.00    -0.00   0.00   0.00     0.00   0.00   0.00
  21   1    -0.00   0.00   0.00     0.00  -0.00  -0.00    -0.00  -0.00  -0.00
                     49                     50                     51
                        a                      a                      a 
 Frequencies --  2976.0633              2978.2894              2986.2745
 Red. masses --     2.0333                 1.4432                 1.5172
 Frc consts  --     0.0000                 0.0000                 0.0000
 IR Inten    --     0.3577                 0.0688                 0.3110
 Raman Activ --     0.0000                 0.0000                 0.0000
 Depolar     --     0.0000                 0.0000                 0.0000
 Atom AN      X      Y      Z        X      Y      Z        X      Y      Z
   1   6    -0.02   0.01   0.00     0.00   0.00  -0.01     0.02   0.02  -0.02
   2   1     0.02  -0.06  -0.00     0.01  -0.02  -0.00     0.02  -0.06  -0.00
   3   1    -0.00   0.00  -0.00    -0.01  -0.01   0.02    -0.02  -0.03   0.05
   4   1     0.07   0.00   0.00    -0.02   0.00  -0.00    -0.06   0.00  -0.00
   5   6     0.13  -0.09   0.00    -0.08  -0.12  -0.00    -0.07  -0.10   0.00
   6   1    -0.10   0.33  -0.00    -0.19   0.48  -0.00    -0.15   0.37  -0.00
   7   1    -0.36  -0.01   0.00     0.50  -0.02  -0.00     0.39  -0.02  -0.00
   8   6     0.19  -0.13   0.00     0.08   0.11   0.00    -0.09  -0.12   0.00
   9   1    -0.15   0.48  -0.00     0.17  -0.42   0.00    -0.18   0.45  -0.00
  10   1    -0.50  -0.02   0.00    -0.46   0.02   0.00     0.48  -0.02  -0.00
  11   6     0.07  -0.05   0.00    -0.02  -0.02   0.00    -0.04  -0.06  -0.00
  12   1    -0.06   0.18  -0.00    -0.04   0.10   0.00    -0.09   0.22  -0.00
  13   1    -0.20  -0.01   0.00     0.11  -0.00   0.00     0.23  -0.01  -0.00
  14   6    -0.06   0.05  -0.00    -0.01  -0.01   0.00     0.03   0.04  -0.00
  15   1     0.05  -0.17   0.00    -0.01   0.03   0.00     0.06  -0.16   0.00
  16   1     0.18   0.01  -0.00     0.04  -0.00   0.00    -0.16   0.01   0.00
  17   6    -0.00   0.00   0.00    -0.00  -0.00  -0.00     0.00   0.00   0.00
  18   1     0.00  -0.00   0.00    -0.00   0.01  -0.00    -0.00   0.00   0.00
  19   1     0.00  -0.00  -0.00     0.01  -0.00  -0.00     0.00   0.00   0.00
  20   8    -0.00   0.00  -0.00    -0.00  -0.00   0.00    -0.00  -0.00  -0.00
  21   1     0.00  -0.00  -0.00     0.00   0.00   0.00     0.00   0.00   0.00
                     52                     53                     54
                        a                      a                      a 
 Frequencies --  2990.7346              3001.7255              3032.0148
 Red. masses --     2.0164                 1.5019                 1.9586
 Frc consts  --     0.0000                 0.0000                 0.0000
 IR Inten    --     0.3860                 0.2945                 0.2880
 Raman Activ --     0.0000                 0.0000                 0.0000
 Depolar     --     0.0000                 0.0000                 0.0000
 Atom AN      X      Y      Z        X      Y      Z        X      Y      Z
   1   6     0.01  -0.00   0.00     0.01   0.01  -0.01     0.24  -0.17   0.00
   2   1    -0.01   0.02  -0.00     0.01  -0.02  -0.00    -0.20   0.64   0.00
   3   1     0.00  -0.00  -0.00    -0.01  -0.01   0.02     0.04  -0.02  -0.01
   4   1    -0.02  -0.00   0.00    -0.02   0.00  -0.00    -0.67  -0.02  -0.00
   5   6    -0.02   0.01  -0.00    -0.01  -0.01   0.00     0.03  -0.03   0.00
   6   1     0.02  -0.05   0.00    -0.02   0.04  -0.00    -0.03   0.08  -0.00
   7   1     0.05   0.00  -0.00     0.05  -0.00  -0.00    -0.08  -0.00   0.00
   8   6    -0.04   0.03  -0.00    -0.02  -0.03  -0.00     0.01  -0.01   0.00
   9   1     0.04  -0.12  -0.00    -0.05   0.12   0.00    -0.01   0.03  -0.00
  10   1     0.12   0.00   0.00     0.13  -0.01   0.00    -0.03  -0.00   0.00
  11   6    -0.07   0.05  -0.00    -0.03  -0.04   0.00     0.00  -0.00   0.00
  12   1     0.06  -0.17   0.00    -0.05   0.11  -0.00    -0.00   0.01   0.00
  13   1     0.17   0.00   0.00     0.12  -0.01   0.00    -0.01  -0.00  -0.00
  14   6    -0.23   0.16  -0.00    -0.12  -0.16   0.01     0.00  -0.00   0.00
  15   1     0.19  -0.61   0.01    -0.24   0.62  -0.01    -0.00   0.01  -0.00
  16   1     0.63   0.02  -0.01     0.67  -0.02  -0.01    -0.01  -0.00   0.00
  17   6    -0.02   0.01  -0.00    -0.01  -0.01  -0.00     0.00  -0.00  -0.00
  18   1     0.01  -0.04  -0.00    -0.01   0.03   0.00    -0.00   0.00   0.00
  19   1     0.04  -0.00   0.00     0.03  -0.00   0.00    -0.00  -0.00  -0.00
  20   8     0.00  -0.00  -0.00     0.00   0.00   0.00    -0.00   0.00  -0.00
  21   1    -0.00   0.00   0.00    -0.00  -0.00  -0.01     0.00  -0.00   0.00
                     55                     56                     57
                        a                      a                      a 
 Frequencies --  3033.5855              3038.6181              3565.0399
 Red. masses --     1.9400                 1.2523                 1.8751
 Frc consts  --     0.0000                 0.0000                 0.0000
 IR Inten    --     0.2769                 0.1803                 0.1455
 Raman Activ --     0.0000                 0.0000                 0.0000
 Depolar     --     0.0000                 0.0000                 0.0000
 Atom AN      X      Y      Z        X      Y      Z        X      Y      Z
   1   6    -0.14  -0.20   0.15    -0.03  -0.05  -0.14    -0.00  -0.00   0.00
   2   1    -0.17   0.40   0.03    -0.18   0.50  -0.01     0.00   0.00   0.00
   3   1     0.24   0.33  -0.59    -0.23  -0.32   0.51     0.00   0.00  -0.00
   4   1     0.44  -0.03   0.03     0.53  -0.01  -0.01     0.00   0.00   0.00
   5   6    -0.02  -0.02   0.00    -0.00  -0.01  -0.01    -0.00  -0.00  -0.00
   6   1    -0.03   0.07  -0.00    -0.01   0.01  -0.00     0.00  -0.00  -0.00
   7   1     0.07  -0.00  -0.00     0.01  -0.00  -0.00    -0.00   0.00  -0.00
   8   6    -0.01  -0.01   0.00    -0.00  -0.00   0.00     0.00   0.00  -0.00
   9   1    -0.02   0.04  -0.00    -0.01   0.01  -0.00    -0.00   0.00   0.00
  10   1     0.05  -0.00  -0.00     0.01  -0.00  -0.00     0.00   0.00   0.00
  11   6    -0.00  -0.00   0.00    -0.00  -0.00  -0.00    -0.00  -0.00  -0.00
  12   1    -0.00   0.01   0.00    -0.00   0.00   0.00     0.00  -0.00  -0.00
  13   1     0.01  -0.00   0.00     0.00  -0.00   0.00    -0.00   0.00  -0.00
  14   6    -0.00  -0.00   0.00    -0.00  -0.00   0.00     0.00   0.00  -0.00
  15   1    -0.00   0.01  -0.00    -0.00   0.00  -0.00    -0.00   0.00   0.00
  16   1     0.01  -0.00  -0.00     0.00  -0.00  -0.00     0.01  -0.00   0.00
  17   6    -0.00  -0.00  -0.00    -0.00  -0.00   0.00    -0.00  -0.00  -0.00
  18   1    -0.00   0.00   0.00    -0.00   0.00   0.00     0.00   0.00   0.00
  19   1     0.00  -0.00   0.00     0.00  -0.00   0.00     0.00   0.00   0.00
  20   8     0.00   0.00   0.00     0.00   0.00  -0.00    -0.08  -0.11  -0.20
  21   1    -0.00  -0.00  -0.00    -0.00  -0.00   0.00     0.31   0.43   0.81
