 Entering Gaussian System
 *********************************************
 Gaussian 98:
 frequency output generated by the xtb code
 *********************************************
                         Standard orientation:
 --------------------------------------------------------------------
  Center     Atomic     Atomic              Coordinates (Angstroms)
  Number     Number      Type              X           Y           Z
 --------------------------------------------------------------------
    1          6             0       -6.175212    1.110414   -0.011001
    2          1             0       -5.823763    0.081314   -0.035956
    3          1             0       -5.815082    1.617868   -0.902914
    4          1             0       -7.262598    1.100469   -0.037069
    5          6             0       -5.677480    1.814500    1.245244
    6          1             0       -6.023049    2.850839    1.241215
    7          1             0       -4.585166    1.831126    1.243021
    8          6             0       -6.167779    1.125411    2.516668
    9          1             0       -5.822607    0.089152    2.521248
   10          1             0       -7.259899    1.109089    2.519748
   11          6             0       -5.670426    1.828142    3.777443
   12          1             0       -6.015083    2.865186    3.772557
   13          1             0       -4.577729    1.844798    3.774288
   14          6             0       -6.161929    1.137952    5.045491
   15          1             0       -5.816667    0.103252    5.068728
   16          1             0       -7.252643    1.122793    5.067055
   17          6             0       -5.666071    1.838419    6.305939
   18          1             0       -6.017860    2.881004    6.314166
   19          1             0       -4.565811    1.850004    6.315888
   20          8             0       -6.161976    1.141868    7.429297
   21          1             0       -5.855105    1.575407    8.231815
 --------------------------------------------------------------------
     1 basis functions        1 primitive gaussians
     1 alpha electrons        1 beta electrons
 
 Harmonic frequencies (cm**-1), IR intensities (KM/Mole),
 Raman scattering activities (A**4/amu), Raman depolarization ratios,
 reduced masses (AMU), force constants (mDyne/A) and normal coordinates:
                      1                      2                      3
                        a                      a                      a 
 Frequencies --    55.8511                72.2873               123.5500
 Red. masses --    99.0000                99.0000                99.0000
 Frc consts  --    99.0000                99.0000                99.0000
 IR Inten    --    99.0000                99.0000                99.0000
 Raman Activ --     0.0000                 0.0000                 0.0000
 Depolar     --     0.0000                 0.0000                 0.0000
 Atom AN      X      Y      Z        X      Y      Z        X      Y      Z
   1   6     0.31  -0.22   0.00     0.20  -0.14   0.00    -0.11   0.08  -0.00
   2   1     0.06  -0.08   0.08     0.26   0.03   0.01     0.05   0.06  -0.08
   3   1     0.17  -0.12   0.00    -0.03   0.02  -0.00    -0.14   0.10   0.00
   4   1     0.09  -0.03  -0.07     0.06  -0.25  -0.01    -0.03  -0.07   0.08
   5   6     0.08  -0.06  -0.00    -0.29   0.21  -0.00    -0.01   0.01   0.00
   6   1     0.06  -0.01  -0.07    -0.26   0.00  -0.02    -0.07  -0.02   0.06
   7   1     0.02  -0.05   0.07    -0.09   0.24   0.02    -0.00   0.07  -0.06
   8   6    -0.27   0.20   0.00     0.01  -0.01   0.00     0.33  -0.24  -0.00
   9   1    -0.15   0.03   0.05     0.07   0.02  -0.03     0.19  -0.04  -0.02
  10   1    -0.08   0.13  -0.04     0.00  -0.08   0.03     0.10  -0.17   0.02
  11   6    -0.28   0.20  -0.00    -0.01   0.01   0.00     0.17  -0.13   0.00
  12   1    -0.07   0.06  -0.00     0.01   0.01  -0.01     0.14  -0.01  -0.09
  13   1    -0.08   0.04   0.00    -0.00  -0.01   0.01     0.05  -0.13   0.09
  14   6    -0.30   0.21  -0.00    -0.09   0.06  -0.00    -0.41   0.29   0.00
  15   1    -0.14   0.04  -0.04    -0.14  -0.02  -0.05    -0.28   0.03   0.05
  16   1    -0.09   0.12   0.03    -0.03   0.14   0.05    -0.12   0.25  -0.05
  17   6     0.02  -0.01   0.00     0.35  -0.25   0.00    -0.17   0.12  -0.00
  18   1     0.01  -0.01   0.09     0.31  -0.00  -0.01    -0.06   0.03   0.08
  19   1     0.01  -0.00  -0.08     0.10  -0.30   0.02    -0.05   0.05  -0.08
  20   8     0.39  -0.28  -0.00    -0.23   0.16  -0.00     0.21  -0.14   0.00
  21   1     0.15  -0.11   0.00     0.03  -0.02   0.00     0.09  -0.07   0.00
                      4                      5                      6
                        a                      a                      a 
 Frequencies --   132.8303               103.8560               232.5270
 Red. masses --    99.0000                99.0000                99.0000
 Frc consts  --    99.0000                99.0000                99.0000
 IR Inten    --    99.0000                99.0000                99.0000
 Raman Activ --     0.0000                 0.0000                 0.0000
 Depolar     --     0.0000                 0.0000                 0.0000
 Atom AN      X      Y      Z        X      Y      Z        X      Y      Z
   1   6    -0.15   0.11  -0.00    -0.24  -0.33   0.15     0.04  -0.03  -0.00
   2   1    -0.17  -0.01  -0.03    -0.07  -0.10   0.10    -0.37  -0.14   0.30
   3   1    -0.01   0.01   0.00    -0.12  -0.16  -0.02     0.45  -0.32   0.00
   4   1    -0.05   0.16   0.03    -0.07  -0.10   0.11     0.01   0.39  -0.30
   5   6     0.22  -0.16   0.00    -0.01  -0.01  -0.12    -0.22   0.16  -0.00
   6   1     0.13  -0.02   0.05    -0.00  -0.00  -0.09    -0.16   0.01   0.00
   7   1     0.06  -0.11  -0.05    -0.00  -0.00  -0.09    -0.06   0.15  -0.00
   8   6     0.27  -0.19   0.00     0.17   0.23   0.07     0.11  -0.08   0.00
   9   1     0.22  -0.01   0.07     0.05   0.07   0.05     0.13   0.01  -0.04
  10   1     0.08  -0.21  -0.07     0.05   0.06   0.05     0.03  -0.12   0.04
  11   6    -0.39   0.28  -0.00     0.23   0.32  -0.00     0.08  -0.06  -0.00
  12   1    -0.31   0.01  -0.04     0.07   0.09  -0.00     0.04  -0.01  -0.01
  13   1    -0.12   0.29   0.04     0.07   0.09   0.00     0.02  -0.03   0.01
  14   6    -0.08   0.06   0.00     0.16   0.23  -0.08    -0.02   0.01   0.00
  15   1    -0.01   0.02  -0.07     0.04   0.07  -0.05    -0.03  -0.00   0.01
  16   1    -0.02   0.01   0.07     0.05   0.07  -0.05    -0.01   0.03  -0.01
  17   6     0.20  -0.14   0.00    -0.01  -0.02   0.12    -0.01   0.01   0.00
  18   1     0.17  -0.00   0.00    -0.01  -0.01   0.09    -0.01   0.00   0.00
  19   1     0.06  -0.16  -0.00    -0.00  -0.01   0.09    -0.00   0.00  -0.00
  20   8    -0.08   0.06   0.00    -0.26  -0.36  -0.17     0.01  -0.01  -0.00
  21   1     0.05  -0.04   0.00    -0.11  -0.15   0.01     0.00  -0.00   0.00
                      7                      8                      9
                        a                      a                      a 
 Frequencies --   290.6287               253.6869               306.2978
 Red. masses --    99.0000                99.0000                99.0000
 Frc consts  --    99.0000                99.0000                99.0000
 IR Inten    --    99.0000                99.0000                99.0000
 Raman Activ --     0.0000                 0.0000                 0.0000
 Depolar     --     0.0000                 0.0000                 0.0000
 Atom AN      X      Y      Z        X      Y      Z        X      Y      Z
   1   6     0.00  -0.00   0.00    -0.12  -0.17   0.23     0.03   0.05   0.45
   2   1     0.00  -0.00   0.00    -0.04  -0.05   0.16     0.01   0.01   0.15
   3   1     0.00  -0.00   0.00    -0.11  -0.16  -0.02    -0.01  -0.01   0.11
   4   1     0.00  -0.00   0.00    -0.04  -0.05   0.16     0.01   0.01   0.15
   5   6    -0.00   0.00   0.00     0.18   0.25  -0.13     0.03   0.05   0.39
   6   1    -0.00   0.00  -0.00     0.05   0.07  -0.08     0.01   0.01   0.13
   7   1    -0.00   0.00   0.00     0.05   0.07  -0.08     0.01   0.01   0.13
   8   6    -0.00   0.00  -0.00     0.20   0.29  -0.10    -0.07  -0.10   0.18
   9   1    -0.01  -0.00  -0.01     0.06   0.08  -0.06    -0.02  -0.03   0.05
  10   1    -0.00   0.01   0.00     0.06   0.08  -0.06    -0.02  -0.03   0.05
  11   6     0.03  -0.02   0.00    -0.01  -0.02   0.12    -0.02  -0.02  -0.01
  12   1     0.00  -0.01   0.01    -0.00  -0.00   0.10    -0.01  -0.01  -0.01
  13   1     0.01  -0.00  -0.01    -0.00  -0.00   0.10    -0.01  -0.01  -0.01
  14   6     0.07  -0.05  -0.00    -0.23  -0.32  -0.10    -0.03  -0.04  -0.15
  15   1     0.07   0.00   0.01    -0.06  -0.09  -0.06    -0.01  -0.01  -0.03
  16   1     0.02  -0.07  -0.01    -0.07  -0.09  -0.06    -0.01  -0.01  -0.03
  17   6    -0.09   0.07  -0.00    -0.15  -0.22  -0.19     0.05   0.08  -0.34
  18   1    -0.04   0.02  -0.01    -0.04  -0.06  -0.12     0.02   0.02  -0.10
  19   1    -0.03   0.03   0.01    -0.04  -0.06  -0.12     0.02   0.02  -0.10
  20   8    -0.20   0.14  -0.00     0.15   0.20   0.20     0.00   0.00  -0.55
  21   1     0.78  -0.55   0.00     0.10   0.15  -0.03    -0.03  -0.03  -0.11
                     10                     11                     12
                        a                      a                      a 
 Frequencies --   424.7945               487.5724               770.3462
 Red. masses --    99.0000                99.0000                99.0000
 Frc consts  --    99.0000                99.0000                99.0000
 IR Inten    --    99.0000                99.0000                99.0000
 Raman Activ --     0.0000                 0.0000                 0.0000
 Depolar     --     0.0000                 0.0000                 0.0000
 Atom AN      X      Y      Z        X      Y      Z        X      Y      Z
   1   6    -0.04  -0.05   0.17    -0.03  -0.04  -0.28     0.01  -0.00   0.00
   2   1    -0.02  -0.02   0.15    -0.00  -0.01  -0.13    -0.08  -0.03  -0.07
   3   1    -0.09  -0.13  -0.05     0.03   0.04  -0.04    -0.02   0.02   0.00
   4   1    -0.01  -0.02   0.15    -0.01  -0.01  -0.13    -0.00   0.08   0.07
   5   6     0.20   0.28  -0.13    -0.06  -0.08  -0.14     0.08  -0.06   0.00
   6   1     0.05   0.08  -0.04    -0.01  -0.02  -0.08    -0.26  -0.10   0.05
   7   1     0.06   0.07  -0.04    -0.02  -0.02  -0.08     0.01   0.28  -0.05
   8   6    -0.03  -0.04  -0.34     0.15   0.21   0.19     0.12  -0.08   0.00
   9   1    -0.01  -0.01  -0.18     0.04   0.06   0.07    -0.37  -0.15  -0.01
  10   1    -0.01  -0.01  -0.18     0.04   0.05   0.07     0.02   0.40   0.01
  11   6    -0.24  -0.34  -0.07    -0.04  -0.05   0.45     0.11  -0.08   0.00
  12   1    -0.06  -0.09  -0.03    -0.01  -0.01   0.20    -0.35  -0.15  -0.02
  13   1    -0.07  -0.09  -0.03    -0.01  -0.01   0.20     0.02   0.38   0.02
  14   6     0.04   0.06   0.28    -0.14  -0.19   0.29     0.07  -0.05   0.00
  15   1     0.01   0.02   0.17    -0.03  -0.05   0.14    -0.23  -0.09   0.06
  16   1     0.01   0.01   0.17    -0.04  -0.05   0.14     0.01   0.25  -0.06
  17   6     0.18   0.25   0.18     0.11   0.15  -0.09     0.01  -0.01  -0.00
  18   1     0.05   0.07   0.09     0.03   0.04  -0.05    -0.08  -0.03  -0.04
  19   1     0.05   0.07   0.09     0.03   0.04  -0.05    -0.00   0.08   0.04
  20   8    -0.06  -0.09  -0.15     0.01   0.01  -0.42    -0.01   0.01   0.00
  21   1    -0.08  -0.11   0.04    -0.05  -0.07  -0.04     0.01  -0.00   0.00
                     13                     14                     15
                        a                      a                      a 
 Frequencies --   786.7321               836.6447              1163.1494
 Red. masses --    99.0000                99.0000                99.0000
 Frc consts  --    99.0000                99.0000                99.0000
 IR Inten    --    99.0000                99.0000                99.0000
 Raman Activ --     0.0000                 0.0000                 0.0000
 Depolar     --     0.0000                 0.0000                 0.0000
 Atom AN      X      Y      Z        X      Y      Z        X      Y      Z
   1   6     0.02  -0.02   0.00     0.06  -0.05   0.00    -0.04   0.03  -0.00
   2   1    -0.13  -0.05  -0.13    -0.16  -0.07  -0.19     0.03   0.02   0.04
   3   1    -0.05   0.04   0.00    -0.09   0.06   0.00     0.02  -0.01  -0.00
   4   1    -0.00   0.14   0.13     0.01   0.18   0.19    -0.01  -0.03  -0.04
   5   6     0.14  -0.10   0.00     0.14  -0.10   0.00     0.07  -0.05   0.00
   6   1    -0.32  -0.14   0.01    -0.22  -0.11  -0.10    -0.05  -0.03   0.04
   7   1     0.03   0.35  -0.01     0.03   0.25   0.10     0.02   0.05  -0.04
   8   6     0.08  -0.05   0.00    -0.11   0.08  -0.00    -0.10   0.07  -0.00
   9   1    -0.16  -0.07   0.10     0.16   0.08   0.13     0.07   0.05   0.07
  10   1     0.02   0.18  -0.10    -0.02  -0.18  -0.13    -0.02  -0.08  -0.07
  11   6    -0.08   0.06  -0.00    -0.14   0.10  -0.00     0.16  -0.12   0.00
  12   1     0.18   0.08  -0.10     0.20   0.11   0.11    -0.11  -0.08   0.13
  13   1    -0.02  -0.20   0.10    -0.03  -0.23  -0.11     0.04   0.13  -0.13
  14   6    -0.15   0.11  -0.00     0.12  -0.08   0.00    -0.25   0.18  -0.00
  15   1     0.35   0.15  -0.02    -0.20  -0.10  -0.15     0.16   0.12   0.17
  16   1    -0.03  -0.38   0.02     0.03   0.23   0.15    -0.06  -0.19  -0.17
  17   6    -0.06   0.04   0.00     0.13  -0.09   0.00     0.34  -0.24   0.00
  18   1     0.19   0.07   0.10    -0.26  -0.12  -0.14    -0.28  -0.18   0.28
  19   1    -0.01  -0.20  -0.10     0.03   0.28   0.14     0.08   0.33  -0.28
  20   8     0.03  -0.02  -0.00    -0.05   0.04   0.00    -0.13   0.09  -0.00
  21   1    -0.01   0.01  -0.00     0.01  -0.01   0.00    -0.01   0.01   0.00
                     16                     17                     18
                        a                      a                      a 
 Frequencies --   913.5850               994.9314               939.4821
 Red. masses --    99.0000                99.0000                99.0000
 Frc consts  --    99.0000                99.0000                99.0000
 IR Inten    --    99.0000                99.0000                99.0000
 Raman Activ --     0.0000                 0.0000                 0.0000
 Depolar     --     0.0000                 0.0000                 0.0000
 Atom AN      X      Y      Z        X      Y      Z        X      Y      Z
   1   6     0.11  -0.08  -0.00    -0.12   0.08  -0.00     0.06   0.08  -0.36
   2   1    -0.17  -0.08  -0.22     0.13   0.07   0.18    -0.03  -0.01   0.22
   3   1    -0.10   0.07  -0.00     0.07  -0.05  -0.00    -0.24  -0.34  -0.40
   4   1     0.02   0.19   0.22    -0.02  -0.15  -0.18     0.00  -0.03   0.22
   5   6     0.03  -0.02  -0.00     0.11  -0.08   0.00     0.16   0.23  -0.09
   6   1    -0.04  -0.02  -0.24    -0.10  -0.06   0.26     0.04   0.06   0.11
   7   1     0.01   0.04   0.24     0.02   0.11  -0.26     0.04   0.06   0.12
   8   6    -0.19   0.14  -0.00    -0.02   0.01   0.00    -0.21  -0.30   0.22
   9   1     0.21   0.12  -0.08     0.02   0.01   0.35    -0.05  -0.08   0.11
  10   1    -0.04  -0.24   0.08    -0.00  -0.02  -0.35    -0.06  -0.08   0.11
  11   6     0.14  -0.10   0.00    -0.08   0.06  -0.00     0.06   0.08   0.16
  12   1    -0.15  -0.09   0.17     0.07   0.05   0.30     0.01   0.02   0.01
  13   1     0.03   0.17  -0.17    -0.02  -0.09  -0.30     0.01   0.02   0.01
  14   6     0.04  -0.03   0.00     0.13  -0.09   0.00     0.05   0.07   0.05
  15   1    -0.03  -0.02   0.27    -0.11  -0.07   0.22     0.01   0.02  -0.02
  16   1     0.01   0.03  -0.27     0.03   0.13  -0.22     0.01   0.02  -0.02
  17   6    -0.17   0.12  -0.00    -0.12   0.09  -0.00    -0.07  -0.09  -0.04
  18   1     0.22   0.12   0.11     0.13   0.07   0.05    -0.02  -0.02  -0.02
  19   1    -0.03  -0.25  -0.11    -0.03  -0.15  -0.05    -0.02  -0.02  -0.02
  20   8     0.05  -0.03  -0.00     0.03  -0.02  -0.00     0.01   0.02  -0.05
  21   1    -0.01   0.00  -0.00    -0.00   0.00  -0.00     0.03   0.04  -0.04
                     19                     20                     21
                        a                      a                      a 
 Frequencies --  1208.5394              1492.8422              1502.8406
 Red. masses --    99.0000                99.0000                99.0000
 Frc consts  --    99.0000                99.0000                99.0000
 IR Inten    --    99.0000                99.0000                99.0000
 Raman Activ --     0.0000                 0.0000                 0.0000
 Depolar     --     0.0000                 0.0000                 0.0000
 Atom AN      X      Y      Z        X      Y      Z        X      Y      Z
   1   6     0.21  -0.15  -0.00    -0.00  -0.00  -0.00     0.01   0.01   0.01
   2   1    -0.15  -0.10  -0.19     0.00   0.00   0.01    -0.04  -0.01  -0.01
   3   1    -0.09   0.06  -0.00     0.01   0.01   0.01    -0.01  -0.00  -0.00
   4   1     0.04   0.17   0.19     0.00   0.00   0.01     0.00  -0.04  -0.01
   5   6    -0.32   0.22   0.00     0.02   0.03  -0.01    -0.09  -0.13   0.00
   6   1     0.19   0.14   0.04    -0.09  -0.03   0.01     0.38   0.12  -0.01
   7   1    -0.07  -0.22  -0.04     0.00  -0.09   0.01    -0.01   0.40  -0.01
   8   6     0.27  -0.19   0.00    -0.06  -0.08   0.00     0.03   0.05  -0.00
   9   1    -0.16  -0.12   0.06     0.22   0.07  -0.01    -0.18  -0.06   0.00
  10   1     0.06   0.19  -0.06    -0.01   0.23  -0.01     0.00  -0.19   0.00
  11   6    -0.21   0.14   0.00    -0.03  -0.04   0.04    -0.10  -0.15   0.00
  12   1     0.12   0.09   0.12     0.13   0.04  -0.02     0.43   0.14  -0.00
  13   1    -0.05  -0.15  -0.12    -0.00   0.14  -0.02    -0.01   0.45  -0.00
  14   6     0.07  -0.05   0.00     0.13   0.19  -0.02     0.03   0.04  -0.01
  15   1    -0.04  -0.03   0.20    -0.51  -0.16   0.01    -0.14  -0.05   0.01
  16   1     0.01   0.05  -0.21     0.02  -0.54   0.01     0.00  -0.14   0.01
  17   6     0.07  -0.06  -0.00     0.07   0.10  -0.01    -0.04  -0.06  -0.01
  18   1    -0.06  -0.04   0.17    -0.28  -0.10   0.03     0.19   0.07   0.00
  19   1     0.02   0.07  -0.18     0.00  -0.30   0.03     0.00   0.21   0.00
  20   8    -0.05   0.03   0.00     0.01   0.02  -0.01    -0.01  -0.01   0.01
  21   1    -0.01  -0.00   0.01    -0.00  -0.00   0.01    -0.00  -0.00   0.00
                     22                     23                     24
                        a                      a                      a 
 Frequencies --  1494.3552              1498.9208              1497.3688
 Red. masses --    99.0000                99.0000                99.0000
 Frc consts  --    99.0000                99.0000                99.0000
 IR Inten    --    99.0000                99.0000                99.0000
 Raman Activ --     0.0000                 0.0000                 0.0000
 Depolar     --     0.0000                 0.0000                 0.0000
 Atom AN      X      Y      Z        X      Y      Z        X      Y      Z
   1   6    -0.01  -0.02   0.00    -0.02  -0.03   0.01     0.03   0.04  -0.00
   2   1     0.08   0.03  -0.01     0.11   0.04  -0.03    -0.14  -0.05   0.00
   3   1    -0.02  -0.02  -0.02    -0.03  -0.04  -0.04     0.02   0.03   0.03
   4   1    -0.00   0.08  -0.01    -0.00   0.11  -0.03     0.00  -0.15   0.01
   5   6     0.04   0.05   0.01     0.02   0.02   0.04    -0.11  -0.16  -0.00
   6   1    -0.14  -0.05  -0.01    -0.06  -0.02  -0.02     0.46   0.15   0.00
   7   1     0.00  -0.15  -0.01     0.00  -0.06  -0.02    -0.01   0.49  -0.00
   8   6     0.07   0.10   0.02     0.13   0.19  -0.02    -0.00  -0.01  -0.03
   9   1    -0.27  -0.09  -0.02    -0.50  -0.16   0.01    -0.00  -0.00   0.02
  10   1     0.01  -0.28  -0.02     0.01  -0.52   0.01    -0.00  -0.00   0.02
  11   6    -0.07  -0.10  -0.02     0.07   0.10  -0.01     0.07   0.09   0.00
  12   1     0.29   0.09   0.01    -0.25  -0.08   0.01    -0.26  -0.08   0.01
  13   1    -0.01   0.30   0.01     0.01  -0.26   0.01     0.01  -0.27   0.01
  14   6    -0.06  -0.08  -0.02     0.08   0.11   0.02    -0.00  -0.00   0.00
  15   1     0.22   0.07   0.02    -0.29  -0.09  -0.01     0.04   0.02  -0.00
  16   1    -0.01   0.23   0.02     0.01  -0.30  -0.01     0.00   0.04  -0.00
  17   6     0.10   0.14   0.04    -0.01  -0.01  -0.02     0.08   0.11   0.01
  18   1    -0.43  -0.15  -0.00     0.04   0.01   0.01    -0.34  -0.12   0.00
  19   1     0.00  -0.45  -0.00     0.00   0.04   0.01     0.00  -0.36   0.00
  20   8     0.01   0.02  -0.02    -0.00  -0.00   0.00     0.01   0.02  -0.01
  21   1     0.00   0.00  -0.00    -0.00  -0.00   0.00     0.00   0.00  -0.00
                     25                     26                     27
                        a                      a                      a 
 Frequencies --  1023.5279              1052.7648              1416.1272
 Red. masses --    99.0000                99.0000                99.0000
 Frc consts  --    99.0000                99.0000                99.0000
 IR Inten    --    99.0000                99.0000                99.0000
 Raman Activ --     0.0000                 0.0000                 0.0000
 Depolar     --     0.0000                 0.0000                 0.0000
 Atom AN      X      Y      Z        X      Y      Z        X      Y      Z
   1   6     0.05   0.07  -0.06    -0.12  -0.18  -0.22    -0.13  -0.18  -0.37
   2   1    -0.00   0.01   0.09    -0.03  -0.04  -0.13     0.22   0.05   0.46
   3   1    -0.07  -0.10  -0.11     0.00   0.01  -0.02     0.25   0.35   0.27
   4   1     0.01  -0.00   0.09    -0.03  -0.04  -0.13    -0.02   0.22   0.46
   5   6    -0.03  -0.05   0.02     0.14   0.20   0.21    -0.00  -0.00   0.08
   6   1    -0.01  -0.01   0.08     0.04   0.06   0.00     0.05   0.02  -0.08
   7   1    -0.01  -0.01   0.08     0.04   0.06   0.00     0.00   0.05  -0.08
   8   6     0.01   0.02   0.03     0.11   0.16   0.35    -0.01  -0.02  -0.00
   9   1     0.01   0.01   0.09     0.03   0.04   0.04    -0.00  -0.01  -0.01
  10   1     0.00   0.01   0.09     0.03   0.04   0.04    -0.00  -0.01  -0.01
  11   6     0.07   0.10  -0.18    -0.26  -0.37  -0.00     0.01   0.01  -0.03
  12   1     0.01   0.02   0.02    -0.07  -0.10  -0.02    -0.00   0.00   0.03
  13   1     0.02   0.02   0.02    -0.07  -0.10  -0.02     0.00   0.00   0.03
  14   6    -0.28  -0.40  -0.28     0.12   0.17  -0.30     0.00   0.00   0.01
  15   1    -0.07  -0.10  -0.09     0.03   0.05  -0.05    -0.00  -0.00  -0.01
  16   1    -0.07  -0.10  -0.09     0.03   0.05  -0.05    -0.00  -0.00  -0.01
  17   6     0.28   0.39   0.15     0.12   0.16  -0.25     0.00   0.00  -0.00
  18   1     0.06   0.09   0.02     0.02   0.03   0.01    -0.00   0.00   0.00
  19   1     0.07   0.09   0.02     0.02   0.03   0.01     0.00  -0.00   0.00
  20   8    -0.01  -0.02   0.14    -0.11  -0.15   0.25     0.00   0.00  -0.00
  21   1    -0.21  -0.29   0.26     0.01   0.02   0.02    -0.00  -0.00   0.00
                     28                     29                     30
                        a                      a                      a 
 Frequencies --  1129.4883              1088.2521              1248.1695
 Red. masses --    99.0000                99.0000                99.0000
 Frc consts  --    99.0000                99.0000                99.0000
 IR Inten    --    99.0000                99.0000                99.0000
 Raman Activ --     0.0000                 0.0000                 0.0000
 Depolar     --     0.0000                 0.0000                 0.0000
 Atom AN      X      Y      Z        X      Y      Z        X      Y      Z
   1   6     0.10   0.14  -0.13    -0.15  -0.21  -0.17     0.19  -0.13   0.00
   2   1    -0.02   0.01   0.19    -0.03  -0.05  -0.16    -0.12  -0.08  -0.15
   3   1    -0.12  -0.17  -0.20     0.03   0.04   0.03    -0.07   0.05   0.00
   4   1     0.02  -0.01   0.19    -0.04  -0.04  -0.16     0.04   0.14   0.15
   5   6    -0.24  -0.33   0.20     0.13   0.19   0.27    -0.15   0.11  -0.00
   6   1    -0.06  -0.08   0.23     0.03   0.05   0.07     0.08   0.07   0.31
   7   1    -0.06  -0.08   0.23     0.03   0.05   0.07    -0.04  -0.10  -0.31
   8   6     0.23   0.32  -0.23    -0.02  -0.03  -0.01    -0.06   0.05  -0.00
   9   1     0.06   0.08  -0.02    -0.00  -0.01  -0.11     0.04   0.03   0.19
  10   1     0.06   0.08  -0.02    -0.00  -0.00  -0.11    -0.02  -0.04  -0.19
  11   6    -0.14  -0.20  -0.02    -0.02  -0.03   0.07     0.23  -0.16   0.00
  12   1    -0.03  -0.05   0.14    -0.01  -0.01  -0.01    -0.13  -0.10   0.20
  13   1    -0.03  -0.04   0.14    -0.01  -0.01  -0.01     0.05   0.15  -0.20
  14   6     0.08   0.12  -0.14    -0.03  -0.04  -0.15    -0.19   0.13  -0.00
  15   1     0.02   0.03   0.01    -0.01  -0.02  -0.21     0.09   0.07  -0.26
  16   1     0.02   0.03   0.01    -0.01  -0.02  -0.21    -0.04  -0.11   0.26
  17   6    -0.05  -0.07   0.11    -0.11  -0.15   0.52    -0.04   0.03  -0.00
  18   1    -0.00  -0.01   0.11    -0.01  -0.02   0.09     0.04   0.03  -0.22
  19   1    -0.01  -0.01   0.11    -0.01  -0.01   0.09    -0.02  -0.04   0.22
  20   8     0.02   0.03  -0.07     0.19   0.26  -0.33     0.04  -0.03   0.00
  21   1     0.08   0.12  -0.11    -0.06  -0.08   0.04     0.01  -0.00  -0.00
                     31                     32                     33
                        a                      a                      a 
 Frequencies --  1112.8972              1103.6591              1207.5363
 Red. masses --    99.0000                99.0000                99.0000
 Frc consts  --    99.0000                99.0000                99.0000
 IR Inten    --    99.0000                99.0000                99.0000
 Raman Activ --     0.0000                 0.0000                 0.0000
 Depolar     --     0.0000                 0.0000                 0.0000
 Atom AN      X      Y      Z        X      Y      Z        X      Y      Z
   1   6    -0.13  -0.19  -0.19    -0.05  -0.08  -0.16     0.04   0.07  -0.03
   2   1    -0.04  -0.05  -0.11    -0.02  -0.02  -0.03    -0.00   0.01   0.07
   3   1    -0.01  -0.01  -0.02    -0.03  -0.04  -0.06    -0.04  -0.05  -0.06
   4   1    -0.03  -0.05  -0.11    -0.01  -0.03  -0.03     0.01  -0.01   0.06
   5   6     0.05   0.07   0.40     0.04   0.06   0.20    -0.08  -0.12   0.06
   6   1     0.01   0.02   0.24     0.02   0.02   0.08    -0.02  -0.03  -0.01
   7   1     0.01   0.01   0.24     0.01   0.02   0.08    -0.02  -0.02  -0.01
   8   6    -0.04  -0.06  -0.40     0.14   0.20   0.18     0.09   0.13   0.04
   9   1    -0.00  -0.01  -0.21     0.05   0.06   0.13     0.02   0.03  -0.12
  10   1    -0.01  -0.01  -0.21     0.04   0.07   0.13     0.02   0.02  -0.12
  11   6     0.18   0.26   0.13     0.03   0.04  -0.56    -0.06  -0.09   0.10
  12   1     0.05   0.07   0.09     0.01   0.01  -0.25    -0.01  -0.02  -0.20
  13   1     0.05   0.07   0.09     0.01   0.01  -0.25    -0.01  -0.01  -0.20
  14   6    -0.03  -0.04   0.15    -0.11  -0.16   0.34     0.11   0.15   0.24
  15   1     0.00  -0.00   0.08    -0.04  -0.04   0.24     0.03   0.04  -0.17
  16   1    -0.00   0.00   0.08    -0.03  -0.05   0.24     0.02   0.04  -0.16
  17   6     0.07   0.10  -0.28    -0.08  -0.11   0.04    -0.08  -0.12  -0.09
  18   1     0.00   0.01  -0.08    -0.02  -0.03  -0.02    -0.03  -0.03  -0.34
  19   1     0.01   0.01  -0.08    -0.02  -0.03  -0.02    -0.02  -0.04  -0.34
  20   8    -0.09  -0.13   0.16     0.02   0.03  -0.09     0.07   0.10   0.04
  21   1    -0.00  -0.00   0.02     0.04   0.05  -0.06    -0.28  -0.39   0.35
                     34                     35                     36
                        a                      a                      a 
 Frequencies --  1285.9845              1268.7349              1504.4617
 Red. masses --    99.0000                99.0000                99.0000
 Frc consts  --    99.0000                99.0000                99.0000
 IR Inten    --    99.0000                99.0000                99.0000
 Raman Activ --     0.0000                 0.0000                 0.0000
 Depolar     --     0.0000                 0.0000                 0.0000
 Atom AN      X      Y      Z        X      Y      Z        X      Y      Z
   1   6     0.12  -0.09   0.00     0.00  -0.00  -0.00     0.17  -0.12   0.00
   2   1    -0.06  -0.05  -0.09    -0.01  -0.00   0.00    -0.15  -0.07   0.44
   3   1    -0.03   0.02   0.00    -0.01   0.01  -0.00    -0.58   0.41  -0.00
   4   1     0.03   0.08   0.09    -0.00   0.01  -0.00     0.02   0.16  -0.44
   5   6     0.05  -0.04   0.00    -0.08   0.05   0.00     0.04  -0.03  -0.00
   6   1    -0.03  -0.02   0.47     0.04   0.03  -0.12    -0.01  -0.02  -0.02
   7   1     0.01   0.03  -0.47    -0.02  -0.05   0.12     0.01   0.01   0.02
   8   6    -0.22   0.16  -0.00    -0.03   0.02   0.00    -0.00   0.00  -0.00
   9   1     0.11   0.09  -0.16     0.01   0.01   0.30     0.00   0.00  -0.02
  10   1    -0.05  -0.13   0.16    -0.01  -0.02  -0.30     0.00   0.00   0.02
  11   6    -0.05   0.03  -0.00     0.02  -0.02   0.00    -0.00   0.00   0.00
  12   1     0.02   0.02  -0.34    -0.01  -0.01  -0.28     0.00   0.00   0.00
  13   1    -0.01  -0.02   0.34     0.00   0.02   0.28    -0.00  -0.00  -0.00
  14   6     0.12  -0.09  -0.00    -0.08   0.06  -0.00    -0.00  -0.00  -0.00
  15   1    -0.06  -0.05   0.14     0.05   0.05   0.37     0.00   0.00   0.00
  16   1     0.03   0.07  -0.14    -0.02  -0.07  -0.37    -0.00   0.00  -0.00
  17   6     0.01  -0.01  -0.00     0.10  -0.07   0.00     0.00   0.00   0.00
  18   1    -0.01  -0.01   0.09    -0.03  -0.03  -0.40    -0.00  -0.00   0.00
  19   1     0.01   0.01  -0.09     0.02   0.04   0.40     0.00  -0.00  -0.00
  20   8    -0.02   0.01  -0.00     0.04  -0.03   0.00    -0.00   0.00  -0.00
  21   1    -0.00   0.00   0.00     0.02  -0.01  -0.00     0.00  -0.00   0.00
                     37                     38                     39
                        a                      a                      a 
 Frequencies --  1259.1434              1289.5624              1306.3176
 Red. masses --    99.0000                99.0000                99.0000
 Frc consts  --    99.0000                99.0000                99.0000
 IR Inten    --    99.0000                99.0000                99.0000
 Raman Activ --     0.0000                 0.0000                 0.0000
 Depolar     --     0.0000                 0.0000                 0.0000
 Atom AN      X      Y      Z        X      Y      Z        X      Y      Z
   1   6    -0.06  -0.09   0.04     0.01  -0.01   0.00     0.06   0.09  -0.04
   2   1     0.02  -0.01  -0.06    -0.01  -0.00  -0.00    -0.04  -0.00   0.03
   3   1     0.05   0.07   0.09    -0.02   0.01   0.00    -0.06  -0.09  -0.10
   4   1    -0.01   0.01  -0.06    -0.00   0.01   0.00     0.01  -0.03   0.03
   5   6     0.08   0.11  -0.13    -0.10   0.07  -0.00    -0.04  -0.05   0.24
   6   1     0.01   0.02   0.15     0.05   0.04  -0.13    -0.00  -0.01  -0.30
   7   1     0.02   0.02   0.15    -0.02  -0.06   0.13    -0.01  -0.01  -0.30
   8   6    -0.04  -0.05  -0.18    -0.06   0.04  -0.00    -0.04  -0.05   0.19
   9   1    -0.01  -0.01   0.32     0.03   0.03   0.42     0.00  -0.01  -0.29
  10   1    -0.01  -0.01   0.32    -0.01  -0.04  -0.42    -0.01   0.00  -0.29
  11   6    -0.04  -0.05  -0.17     0.14  -0.10   0.00     0.06   0.09  -0.03
  12   1    -0.00  -0.01   0.32    -0.06  -0.06  -0.29    -0.01   0.01   0.08
  13   1    -0.01  -0.00   0.33     0.04   0.08   0.29     0.01  -0.00   0.08
  14   6     0.11   0.16  -0.12     0.15  -0.11   0.00     0.01   0.02  -0.30
  15   1     0.02   0.04   0.21    -0.07  -0.07  -0.21     0.00   0.01   0.37
  16   1     0.03   0.03   0.21     0.04   0.09   0.21     0.01   0.01   0.37
  17   6    -0.12  -0.17  -0.03    -0.08   0.06  -0.00    -0.09  -0.12  -0.06
  18   1    -0.02  -0.04  -0.10     0.02   0.02   0.33    -0.00  -0.02   0.11
  19   1    -0.03  -0.03  -0.10    -0.01  -0.03  -0.33    -0.02  -0.01   0.11
  20   8     0.09   0.13  -0.00    -0.04   0.03  -0.00     0.08   0.11  -0.01
  21   1    -0.18  -0.26   0.23    -0.01   0.01  -0.00    -0.11  -0.15   0.14
                     40                     41                     42
                        a                      a                      a 
 Frequencies --  1507.5206              1353.3218              1377.1864
 Red. masses --    99.0000                99.0000                99.0000
 Frc consts  --    99.0000                99.0000                99.0000
 IR Inten    --    99.0000                99.0000                99.0000
 Raman Activ --     0.0000                 0.0000                 0.0000
 Depolar     --     0.0000                 0.0000                 0.0000
 Atom AN      X      Y      Z        X      Y      Z        X      Y      Z
   1   6    -0.10  -0.14   0.11     0.05   0.07  -0.03     0.02   0.03  -0.05
   2   1     0.57   0.19  -0.14    -0.06  -0.01  -0.02    -0.04  -0.01   0.01
   3   1    -0.15  -0.22  -0.17    -0.06  -0.09  -0.10    -0.02  -0.03  -0.04
   4   1    -0.01   0.60  -0.14     0.01  -0.06  -0.02     0.00  -0.04   0.01
   5   6    -0.06  -0.09   0.05     0.01   0.01   0.34     0.02   0.03   0.31
   6   1     0.15   0.04  -0.03    -0.01  -0.01  -0.35    -0.02  -0.00  -0.25
   7   1    -0.01   0.15  -0.03    -0.00  -0.02  -0.35     0.00  -0.02  -0.25
   8   6    -0.03  -0.04  -0.02    -0.04  -0.06  -0.07     0.00   0.00  -0.43
   9   1     0.12   0.04   0.01     0.02  -0.00   0.08    -0.00   0.00   0.37
  10   1    -0.00   0.13   0.01    -0.01   0.02   0.08     0.00  -0.00   0.37
  11   6     0.00   0.00   0.01    -0.01  -0.02  -0.31    -0.02  -0.02   0.33
  12   1    -0.03  -0.01  -0.00     0.01   0.00   0.33     0.01  -0.00  -0.28
  13   1    -0.00  -0.03  -0.00    -0.00   0.01   0.33    -0.01   0.01  -0.28
  14   6    -0.01  -0.01   0.00     0.03   0.04   0.22    -0.01  -0.02  -0.11
  15   1     0.03   0.01  -0.00    -0.02  -0.00  -0.20     0.02   0.00   0.06
  16   1    -0.00   0.03  -0.00     0.00  -0.02  -0.20    -0.00   0.02   0.06
  17   6     0.00   0.01   0.00     0.05   0.06   0.12    -0.01  -0.02  -0.05
  18   1    -0.02  -0.01  -0.00     0.00   0.01  -0.21    -0.00  -0.01   0.09
  19   1    -0.00  -0.02  -0.00     0.01   0.01  -0.21    -0.01  -0.00   0.09
  20   8     0.00   0.00  -0.00    -0.06  -0.08   0.01     0.02   0.03  -0.00
  21   1     0.00   0.00  -0.00     0.07   0.09  -0.09    -0.02  -0.03   0.03
                     43                     44                     45
                        a                      a                      a 
 Frequencies --  1383.5575              2956.5756              2962.0970
 Red. masses --    99.0000                99.0000                99.0000
 Frc consts  --    99.0000                99.0000                99.0000
 IR Inten    --    99.0000                99.0000                99.0000
 Raman Activ --     0.0000                 0.0000                 0.0000
 Depolar     --     0.0000                 0.0000                 0.0000
 Atom AN      X      Y      Z        X      Y      Z        X      Y      Z
   1   6    -0.01  -0.01  -0.00     0.00  -0.00  -0.00     0.01  -0.01  -0.00
   2   1     0.01   0.00   0.01    -0.00   0.01   0.00    -0.01   0.05   0.00
   3   1     0.01   0.02   0.01     0.00  -0.00   0.00     0.00  -0.00   0.00
   4   1    -0.00   0.01   0.01    -0.01  -0.00  -0.00    -0.05  -0.00  -0.00
   5   6    -0.00  -0.00  -0.03    -0.05   0.03  -0.00    -0.19   0.14  -0.00
   6   1     0.00   0.00   0.03     0.04  -0.13   0.00     0.16  -0.52   0.00
   7   1     0.00   0.00   0.03     0.14   0.01  -0.00     0.55   0.02  -0.00
   8   6     0.00   0.00  -0.01     0.12  -0.08   0.00     0.09  -0.06   0.00
   9   1    -0.01  -0.00  -0.01    -0.10   0.33  -0.00    -0.08   0.25  -0.00
  10   1     0.00  -0.01  -0.01    -0.35  -0.02   0.00    -0.26  -0.01   0.00
  11   6     0.01   0.02   0.15    -0.19   0.14  -0.00     0.10  -0.07   0.00
  12   1    -0.01  -0.00  -0.10     0.16  -0.53   0.00    -0.08   0.27  -0.00
  13   1     0.00  -0.01  -0.10     0.56   0.02  -0.00    -0.28  -0.01   0.00
  14   6     0.01   0.01  -0.32     0.03  -0.02   0.00    -0.03   0.02  -0.00
  15   1    -0.02   0.00   0.24    -0.03   0.10  -0.00     0.02  -0.08   0.00
  16   1     0.01  -0.02   0.24    -0.10  -0.01   0.00     0.08   0.00  -0.00
  17   6     0.05   0.07   0.43     0.00  -0.00  -0.00    -0.00   0.00  -0.00
  18   1     0.02   0.03  -0.48     0.00  -0.00  -0.00     0.00   0.00   0.00
  19   1     0.02   0.03  -0.48     0.00   0.00   0.00    -0.00  -0.00  -0.00
  20   8    -0.09  -0.13   0.00     0.00  -0.00  -0.00    -0.00   0.00   0.00
  21   1     0.11   0.16  -0.15    -0.00   0.00   0.00     0.00  -0.00  -0.00
                     46                     47                     48
                        a                      a                      a 
 Frequencies --  2849.0685              2990.7346              3033.5855
 Red. masses --    99.0000                99.0000                99.0000
 Frc consts  --    99.0000                99.0000                99.0000
 IR Inten    --    99.0000                99.0000                99.0000
 Raman Activ --     0.0000                 0.0000                 0.0000
 Depolar     --     0.0000                 0.0000                 0.0000
 Atom AN      X      Y      Z        X      Y      Z        X      Y      Z
   1   6    -0.00   0.00  -0.00     0.01  -0.00   0.00    -0.14  -0.20   0.15
   2   1     0.00  -0.00   0.00    -0.01   0.02  -0.00    -0.17   0.40   0.03
   3   1    -0.00   0.00   0.00     0.00  -0.00  -0.00     0.24   0.33  -0.59
   4   1     0.00   0.00  -0.00    -0.02  -0.00   0.00     0.44  -0.03   0.03
   5   6    -0.00   0.00  -0.00    -0.02   0.01  -0.00    -0.02  -0.02   0.00
   6   1     0.00  -0.00  -0.00     0.02  -0.05   0.00    -0.03   0.07  -0.00
   7   1     0.00  -0.00   0.00     0.05   0.00  -0.00     0.07  -0.00  -0.00
   8   6    -0.00   0.00   0.00    -0.04   0.03  -0.00    -0.01  -0.01   0.00
   9   1     0.00  -0.00   0.00     0.04  -0.12  -0.00    -0.02   0.04  -0.00
  10   1     0.00  -0.00  -0.00     0.12   0.00   0.00     0.05  -0.00  -0.00
  11   6    -0.01   0.00  -0.00    -0.07   0.05  -0.00    -0.00  -0.00   0.00
  12   1     0.00  -0.01  -0.00     0.06  -0.17   0.00    -0.00   0.01   0.00
  13   1     0.01  -0.00   0.00     0.17   0.00   0.00     0.01  -0.00   0.00
  14   6    -0.01   0.00  -0.00    -0.23   0.16  -0.00    -0.00  -0.00   0.00
  15   1     0.01  -0.04  -0.00     0.19  -0.61   0.01    -0.00   0.01  -0.00
  16   1     0.04   0.00   0.00     0.63   0.02  -0.01     0.01  -0.00  -0.00
  17   6     0.24  -0.17   0.00    -0.02   0.01  -0.00    -0.00  -0.00  -0.00
  18   1    -0.20   0.64   0.01     0.01  -0.04  -0.00    -0.00   0.00   0.00
  19   1    -0.67  -0.02  -0.01     0.04  -0.00   0.00     0.00  -0.00   0.00
  20   8     0.01  -0.00   0.00     0.00  -0.00  -0.00     0.00   0.00   0.00
  21   1    -0.00   0.00  -0.00    -0.00   0.00   0.00    -0.00  -0.00  -0.00
                     49                     50                     51
                        a                      a                      a 
 Frequencies --  3032.0148              2976.0633              2882.9320
 Red. masses --    99.0000                99.0000                99.0000
 Frc consts  --    99.0000                99.0000                99.0000
 IR Inten    --    99.0000                99.0000                99.0000
 Raman Activ --     0.0000                 0.0000                 0.0000
 Depolar     --     0.0000                 0.0000                 0.0000
 Atom AN      X      Y      Z        X      Y      Z        X      Y      Z
   1   6     0.24  -0.17   0.00    -0.02   0.01   0.00    -0.00  -0.00   0.00
   2   1    -0.20   0.64   0.00     0.02  -0.06  -0.00    -0.00   0.00  -0.00
   3   1     0.04  -0.02  -0.01    -0.00   0.00  -0.00     0.00   0.00  -0.00
   4   1    -0.67  -0.02  -0.00     0.07   0.00   0.00    -0.00  -0.00  -0.00
   5   6     0.03  -0.03   0.00     0.13  -0.09   0.00    -0.00  -0.00  -0.00
   6   1    -0.03   0.08  -0.00    -0.10   0.33  -0.00    -0.00   0.00   0.00
   7   1    -0.08  -0.00   0.00    -0.36  -0.01   0.00     0.00  -0.00   0.00
   8   6     0.01  -0.01   0.00     0.19  -0.13   0.00    -0.00  -0.00  -0.00
   9   1    -0.01   0.03  -0.00    -0.15   0.48  -0.00    -0.00   0.00  -0.00
  10   1    -0.03  -0.00   0.00    -0.50  -0.02   0.00     0.00  -0.00  -0.00
  11   6     0.00  -0.00   0.00     0.07  -0.05   0.00    -0.01  -0.01  -0.00
  12   1    -0.00   0.01   0.00    -0.06   0.18  -0.00    -0.01   0.02   0.00
  13   1    -0.01  -0.00  -0.00    -0.20  -0.01   0.00     0.02  -0.00   0.00
  14   6     0.00  -0.00   0.00    -0.06   0.05  -0.00    -0.00  -0.00   0.00
  15   1    -0.00   0.01  -0.00     0.05  -0.17   0.00    -0.01   0.03  -0.00
  16   1    -0.01  -0.00   0.00     0.18   0.01  -0.00     0.03  -0.00  -0.00
  17   6     0.00  -0.00  -0.00    -0.00   0.00   0.00     0.11   0.16   0.02
  18   1    -0.00   0.00   0.00     0.00  -0.00   0.00     0.26  -0.64  -0.00
  19   1    -0.00  -0.00  -0.00     0.00  -0.00  -0.00    -0.69   0.04  -0.00
  20   8    -0.00   0.00  -0.00    -0.00   0.00  -0.00     0.01   0.01  -0.02
  21   1     0.00  -0.00   0.00     0.00  -0.00  -0.00     0.00   0.00  -0.00
                     52                     53                     54
                        a                      a                      a 
 Frequencies --  2974.2142              2978.2894              2986.2745
 Red. masses --    99.0000                99.0000                99.0000
 Frc consts  --    99.0000                99.0000                99.0000
 IR Inten    --    99.0000                99.0000                99.0000
 Raman Activ --     0.0000                 0.0000                 0.0000
 Depolar     --     0.0000                 0.0000                 0.0000
 Atom AN      X      Y      Z        X      Y      Z        X      Y      Z
   1   6     0.00   0.01  -0.01     0.00   0.00  -0.01     0.02   0.02  -0.02
   2   1     0.01  -0.02  -0.00     0.01  -0.02  -0.00     0.02  -0.06  -0.00
   3   1    -0.01  -0.01   0.02    -0.01  -0.01   0.02    -0.02  -0.03   0.05
   4   1    -0.02   0.00  -0.00    -0.02   0.00  -0.00    -0.06   0.00  -0.00
   5   6    -0.04  -0.06   0.00    -0.08  -0.12  -0.00    -0.07  -0.10   0.00
   6   1    -0.09   0.23   0.00    -0.19   0.48  -0.00    -0.15   0.37  -0.00
   7   1     0.24  -0.01   0.00     0.50  -0.02  -0.00     0.39  -0.02  -0.00
   8   6    -0.02  -0.03   0.00     0.08   0.11   0.00    -0.09  -0.12   0.00
   9   1    -0.05   0.12   0.00     0.17  -0.42   0.00    -0.18   0.45  -0.00
  10   1     0.13  -0.00   0.00    -0.46   0.02   0.00     0.48  -0.02  -0.00
  11   6     0.11   0.15  -0.00    -0.02  -0.02   0.00    -0.04  -0.06  -0.00
  12   1     0.23  -0.59   0.00    -0.04   0.10   0.00    -0.09   0.22  -0.00
  13   1    -0.63   0.02   0.00     0.11  -0.00   0.00     0.23  -0.01  -0.00
  14   6    -0.01  -0.01  -0.00    -0.01  -0.01   0.00     0.03   0.04  -0.00
  15   1    -0.03   0.07  -0.00    -0.01   0.03   0.00     0.06  -0.16   0.00
  16   1     0.07  -0.00  -0.00     0.04  -0.00   0.00    -0.16   0.01   0.00
  17   6     0.00   0.00   0.00    -0.00  -0.00  -0.00     0.00   0.00   0.00
  18   1     0.01  -0.02  -0.00    -0.00   0.01  -0.00    -0.00   0.00   0.00
  19   1    -0.02   0.00  -0.00     0.01  -0.00  -0.00     0.00   0.00   0.00
  20   8     0.00   0.00   0.00    -0.00  -0.00   0.00    -0.00  -0.00  -0.00
  21   1    -0.00  -0.00  -0.00     0.00   0.00   0.00     0.00   0.00   0.00
                     55                     56                     57
                        a                      a                      a 
 Frequencies --  3038.6181              3001.7255              3565.0399
 Red. masses --    99.0000                99.0000                99.0000
 Frc consts  --    99.0000                99.0000                99.0000
 IR Inten    --    99.0000                99.0000                99.0000
 Raman Activ --     0.0000                 0.0000                 0.0000
 Depolar     --     0.0000                 0.0000                 0.0000
 Atom AN      X      Y      Z        X      Y      Z        X      Y      Z
   1   6    -0.03  -0.05  -0.14     0.01   0.01  -0.01    -0.00  -0.00   0.00
   2   1    -0.18   0.50  -0.01     0.01  -0.02  -0.00     0.00   0.00   0.00
   3   1    -0.23  -0.32   0.51    -0.01  -0.01   0.02     0.00   0.00  -0.00
   4   1     0.53  -0.01  -0.01    -0.02   0.00  -0.00     0.00   0.00   0.00
   5   6    -0.00  -0.01  -0.01    -0.01  -0.01   0.00    -0.00  -0.00  -0.00
   6   1    -0.01   0.01  -0.00    -0.02   0.04  -0.00     0.00  -0.00  -0.00
   7   1     0.01  -0.00  -0.00     0.05  -0.00  -0.00    -0.00   0.00  -0.00
   8   6    -0.00  -0.00   0.00    -0.02  -0.03  -0.00     0.00   0.00  -0.00
   9   1    -0.01   0.01  -0.00    -0.05   0.12   0.00    -0.00   0.00   0.00
  10   1     0.01  -0.00  -0.00     0.13  -0.01   0.00     0.00   0.00   0.00
  11   6    -0.00  -0.00  -0.00    -0.03  -0.04   0.00    -0.00  -0.00  -0.00
  12   1    -0.00   0.00   0.00    -0.05   0.11  -0.00     0.00  -0.00  -0.00
  13   1     0.00  -0.00   0.00     0.12  -0.01   0.00    -0.00   0.00  -0.00
  14   6    -0.00  -0.00   0.00    -0.12  -0.16   0.01     0.00   0.00  -0.00
  15   1    -0.00   0.00  -0.00    -0.24   0.62  -0.01    -0.00   0.00   0.00
  16   1     0.00  -0.00  -0.00     0.67  -0.02  -0.01     0.01  -0.00   0.00
  17   6    -0.00  -0.00   0.00    -0.01  -0.01  -0.00    -0.00  -0.00  -0.00
  18   1    -0.00   0.00   0.00    -0.01   0.03   0.00     0.00   0.00   0.00
  19   1     0.00  -0.00   0.00     0.03  -0.00   0.00     0.00   0.00   0.00
  20   8     0.00   0.00  -0.00     0.00   0.00   0.00    -0.08  -0.11  -0.20
  21   1    -0.00  -0.00   0.00    -0.00  -0.00  -0.01     0.31   0.43   0.81
