 
        ______________________________________
       |                                      |
       |           ==================         |
       |                 x T B                |
       |           ==================         |
       |               S. Grimme              |
       |        Universitaet Bonn, MCTC       |
       |         2015-18, Version 5.8.1       |
       |      Sun May  6 11:39:08 CEST 2018   |
       |______________________________________|
 
        This code comes without any warranty
        for non-commercial, academia use only.
        Preliminary GFN2 test version.
        Test license to: Dow Chemical Company
        Cite GFN-xTB work as:
        S. Grimme, C. Bannwarth, P. Shushkov
        JCTC, 13 (2017) 1989-2009
        for GFN2:
        C. Bannwarth, S. Ehlert, S. Grimme
        to be published.
        sTDA-xTB:
        S. Grimme  &  C. Bannwarth, JCP 145 (2016) 054103
        in the mass-spec context additionally:
        V. Asgeirsson, C.Bauer, S. Grimme, Chem. Sci. 8 (2017) 4879
 
        with help from
        P. Shushkov, G. Brandenburg, S. Dohm, J. Pisarek,
        F. März, M. Checinski, S. Ehrlich, S. Spicher, 
        P. Pracht, E. Caldeweyher, S. Ehlert, and C. Bannwarth.
 
        usage        :
        xtb <coord_file> [options]
        where <coord_file> is a valid file of TM)
        (*coord, Bohr) or xmol (*xyz, Angstroem)
        format.

        options:
        -chrg <int>   : molecular charge
        -uhf  <int>   : # of unpaired electrons(=2*S)
        -nox          : skip second, extended part in sTDA-xTB
        -pop          : do population analysis
                      : (default for -nox)
        -mowr <real>  : cut MO write above (def.3 Eh)
        -molden       : write formatted molden file
        -parx <file>  : read parameters for sTDA-xTB
                        calc (def:~/.param_stda2.xtb)
        -parv <file>  : read parameters for vTB part in
                        sTDA-xTB (def: ~/.param_stda1.xtb)
        -xtemp <real> : el. temp for xTB (def. 0 K)
        -etemp <real> : el. temp for GFN (def. 300 K)
        -fod          : calculate the FOD and write
                        molden.input file with
                        appropriate occupations
                        for plotting. Def. T=12500 K
 
        -gfn1         : use GFN-xTB
        -gfn2         : use GFN2-xTB
        -gfn2d3       : GFN2-xTB with D3 instead of D4
        -grad         : GFNn-xTB gradient
        -acc <real>   : GFNn-xTB accuracy (def. 1.0)
        -opt [level]  : optimize at GFNn-xTB
                      : level=crude,vloose,loose,
                      :       tight,vtight
        -hess         : compute Hessian at GFNn-xTB
        -ohess        : optimize and compute Hessian
        -omd          : optimize and do MD
        -siman        : conformational search
        -screen       : opt. loop over ensemble
        -gmd          : annealed MD for GMD procedure
        -modef        : vib mode following
        -gbsa [string1] [string2]
                        use GBSA implicit solvent
                        for solvent [string1] and
                        solvation state [string2]=
                        reference, bar1M (default=1M)
        additional GFN/opt/MD/siman options read from
        $XTBHOME/.xtbrc or $set in coordinate file
 
       spin and charge state information can be on:
       <.CHRG> (charge) and <.UHF> (=nalpha-nbeta)
       -uhf and -chrg override the file info.
       useful machine settings:
       setenv MKL_NUM_THREADS <NCORE_ON_YOUR_MACHINE>
       setenv OMP_STACKSIZE 500m
       limit stacksize unlimited
 
       total energies in Eh, gaps/HL energies in eV
       please read REVISION and HOWTO files carefully
          72  days left until this code expires
 =============================
  # OMP threads =           2
 =============================
 
 xtbhome directory:/home/ua25450/dftb/
 
 argument            1 :-ohess
 
 name of molecule           :
 comment line               :
 number of atoms            :    12
 number of electrons        :    30
 charge                     :  0
 spin                       : 0.0
 first test random number   :  0.6941
 
 
 -----------------------------------------
  G F N (Geometry, Frequency, Non-covalent)
        parametrization, gfnver=           3
     D4 dispersion model
 /home/ua25450/dftb/.param_gfn2.xtb
 -----------------------------------------
      method parameters     
 k(s)        :  1.8500
 k(p)        :  2.2300
 k(d)        :  2.2300
 k(f)        :  2.0000
 kEN (H0ij)  : -2.0000
 D3 a1       :  0.5200
 D3 a2       :  5.0000
 D3 s8       :  2.7000
 D3atm       :  5.0000
 alphaj      :  2.0000
 
     -------------------------
     ! NO SOLVENT MODEL USED !
     -------------------------
 
 doing EN charges ...
 sum q : -0.1110223D-15
 point charge moment (au)
     X       Y       Z   
  -0.0000  -0.0000  -0.0000  total (Debye):    0.000
 
            Z     q(EN)     CN     RAES       Cart. coordinates
     1  C   4.0   -0.04    3.27    3.05    -2.16137    -0.67848     0.00014
     2  C   4.0   -0.04    3.27    3.05     0.45511    -0.67859     0.00101
     3  C   4.0   -0.04    3.27    3.05     1.76339     1.58715     0.00001
     4  C   4.0   -0.04    3.27    3.05     0.45526     3.85316    -0.00187
     5  C   4.0   -0.04    3.27    3.05    -2.16107     3.85328    -0.00278
     6  C   4.0   -0.04    3.27    3.05    -3.46943     1.58741    -0.00179
     7  H   1.0    0.04    1.01    1.43    -3.18228    -2.44676     0.00089
     8  H   1.0    0.04    1.01    1.43     1.47582    -2.44699     0.00233
     9  H   1.0    0.04    1.01    1.43     3.80522     1.58718     0.00048
    10  H   1.0    0.04    1.01    1.43     1.47640     5.62130    -0.00287
    11  H   1.0    0.04    1.01    1.43    -3.18201     5.62154    -0.00425
    12  H   1.0    0.04    1.01    1.43    -5.51125     1.58763    -0.00245
 
  Z AO/shell   Hii/eV     exponent
  1     Wed Apr 25 08:07:45 CEST 2018   EN: 2.200 GM2: 0.406  GM3: 0.0800  RAES: 1.40
     1s    -10.707211    1.230000
  6     Wed Apr 25 08:07:45 CEST 2018   EN: 2.550 GM2: 0.538  GM3: 0.1500  RAES: 3.00
     2s    -13.970922    2.096432
     2p    -10.063292    1.800000
 
Molecule has the following symmetry elements: (i) (C6) (C3) 7*(C2) (S6) (S3) 7*(sigma) 
It seems to be the D6h point group
d6h symmetry found (for desy threshold:  0.10E+00) used in thermo
 no old-style atom pair restraing (fixing) potential
 
             =======================================
             |                                     |
             |        S C C  calculation           |
             |                                     |
             =======================================
 #proc     :            2
 Ncao      :           30
 Nao       :           30
 Nel       :           30
 T(el)     :   300.0
 intcut    :    25.0
 scfconv   :  0.100E-05
   qconv   :  0.100E-03
 intneglect:  0.100E-07
 broydamp  :      0.400
 Nshell    :           18
 iter      E             dE          RMSdq      gap      omega  full diag
   1    -16.1957726 -0.161958E+02  0.472E+00    4.96       0.0  T
   2    -16.1963974 -0.624847E-03  0.284E+00    4.95       1.0  T
   3    -16.1965692 -0.171744E-03  0.104E-01    4.93       1.0  T
   4    -16.1965842 -0.150336E-04  0.449E-02    4.93       1.0  T
   5    -16.1965844 -0.195107E-06  0.413E-03    4.93       7.0  T
   6    -16.1965844 -0.340050E-07  0.737E-04    4.93      39.2  T
   7    -16.1965844 -0.131557E-10  0.406E-05    4.93     710.5  T
speedup  1.00
cpu  time for SCC    0.01 s
wall time for SCC    0.01 s

          eigenvalues
 #    :           3          4          5          6          7          8          9         10
 occ. :        2.000      2.000      2.000      2.000      2.000      2.000      2.000      2.000
 eps  :       -16.640    -15.484    -15.484    -14.455    -13.470    -13.318    -12.963    -12.963
 #    :          11         12         13         14         15         16         17         18
 occ. :        2.000      2.000      2.000      2.000      2.000      0.000      0.000      0.000
 eps  :       -12.920    -11.467    -11.467    -10.954    -10.954     -6.019     -6.019     -2.446
 #    :          19         20         21         22         23         24         25         26
 occ. :        0.000      0.000      0.000      0.000      0.000      0.000      0.000      0.000
 eps  :         3.209      3.747      4.719      4.719      5.516      5.516     11.245     11.246
 

   #   Z            q   n(s)   n(p)   n(d)      C6AA      α(0)    relVol
   1   6 C     -0.029  1.079  2.950  0.000    28.730     8.798     0.712
   2   6 C     -0.029  1.079  2.950  0.000    28.730     8.798     0.712
   3   6 C     -0.029  1.079  2.950  0.000    28.730     8.798     0.712
   4   6 C     -0.029  1.079  2.950  0.000    28.730     8.798     0.712
   5   6 C     -0.029  1.079  2.950  0.000    28.730     8.798     0.712
   6   6 C     -0.029  1.079  2.950  0.000    28.730     8.798     0.712
   7   1 H      0.029  0.971  0.000  0.000     2.601     2.521     0.499
   8   1 H      0.029  0.971  0.000  0.000     2.601     2.521     0.499
   9   1 H      0.029  0.971  0.000  0.000     2.601     2.521     0.499
  10   1 H      0.029  0.971  0.000  0.000     2.601     2.521     0.499
  11   1 H      0.029  0.971  0.000  0.000     2.601     2.521     0.499
  12   1 H      0.029  0.971  0.000  0.000     2.601     2.521     0.499

 Mol. C6AA /au*bohr^6 :       1749.446772
 Mol. C8AA /au*bohr^6 :      42666.669944
 Mol. a(0) /au        :         67.918535

 
 Wiberg/Mayer (AO) data. WBOs > 0.1 written file <wbo>
 largest (>0.05) Wiberg bond orders for each atom
           total WBO             WBO to atom ...
     1  C   3.993    C    6 1.441    C    2 1.441    H    7 0.972    C    4 0.114
     2  C   3.993    C    3 1.441    C    1 1.441    H    8 0.972    C    5 0.114
     3  C   3.993    C    2 1.441    C    4 1.441    H    9 0.972    C    6 0.114
     4  C   3.993    C    5 1.441    C    3 1.441    H   10 0.972    C    1 0.114
     5  C   3.993    C    4 1.441    C    6 1.441    H   11 0.972    C    2 0.114
     6  C   3.993    C    1 1.441    C    5 1.441    H   12 0.972    C    3 0.114
     7  H   0.999    C    1 0.972
     8  H   0.999    C    2 0.972
     9  H   0.999    C    3 0.972
    10  H   0.999    C    4 0.972
    11  H   0.999    C    5 0.972
    12  H   0.999    C    6 0.972
 
molecular dipole:
                 x           y           z       tot (Debye)
 q only:        0.000       0.000      -0.000
   full:        0.000       0.000      -0.000       0.000
molecular quadrupole (traceless):
                xx          xy          yy          xz          yz          zz
 q only:        0.639       0.000       0.639       0.001      -0.001      -1.278
  q+dip:        2.668       0.000       2.668       0.002      -0.005      -5.335
   full:        1.333       0.000       1.333       0.001      -0.003      -2.667
 SCC converged in            7  cycles
 
SCC energy    :     -16.1965844
rep           :       0.3169427
ES            :       0.0007892
AES           :       0.0025172
AXC           :       0.0123880
disp          :      -0.0080192
XB            :       0.0000000
fix           :       0.0000000
total E       :     -15.8796350
atomizationE  :       3.7814664     2372.91
(atE without considerung molecular charge,
 total energy contains solvation terms)
H-L gap (eV)  :          4.9348
 
             =======================================
             |                                     |
             |    Approximate Normal Coordinate    |
             |   Rational Function Optimization    |
             |                                     |
             =======================================
Ref. for RF algo: F.Eckert, P.Pulay, H.-J.Werner
                  J.Comput.Chem. 18 (1997) 1473.
ANC idea implemented by S. Grimme in the 2000ers (unpublished)
restraining potential by S. Ehrlich.
dumping coords to <xtbopt.coord> and <xtbopt.log
 optlevel               1
 Maxcycle             200
 Maxmicro              20
 Econv         1.000000000000000E-006
 Gconv         8.000000000000000E-004
 Maxdispl       1.00000000000000     
 Hlow          1.000000000000000E-002
 S6             20.0000000000000     
 Nvar               30

generating ANC from model Hessian ...
 Shifting diagonal of input Hessian by   0.000000000000000E+000
 Lowest  eigenvalues of input Hessian
   -0.000000   -0.000000   -0.000000    0.000000    0.000000    0.000000
    0.015094    0.015100    0.024834    0.026432    0.068649    0.068706
    0.097660    0.097670    0.101311    0.101322    0.102976    0.128130
 Highest eigenvalues
    1.385978    1.592269    1.592273    1.897152    2.014884    2.014931
 
cpu  time for ANC gen    0.01 s
wall time for ANC gen    0.01 s
................................................................................
.............................. CYCLE    1 ......................................
................................................................................
  q data taken from xtbrestart
  CAMM data taken from xtbrestart
   1    -16.1965844 -0.161966E+02  0.679E-06    4.93       0.0  T
   2    -16.1965844 -0.270006E-12  0.422E-06    4.93    6833.5  T
   3    -16.1965844 -0.195399E-12  0.169E-06    4.93   17111.5  T
speedup  1.00
cpu  time for SCC    0.00 s
wall time for SCC    0.00 s
speedup  1.00
cpu  time for grad    0.00 s
wall time for grad    0.00 s
 E :    -15.87963501  G :  0.000168    pred/act E change:  0.000D+00  0.651D-11
Maxdispl :   0.0002   ||displ|| :   0.0004   Lambda : -0.314D-07
Largest |displ|/coords:  0.0002 (   3)  0.0002 (  16)  0.0002 (   6)
................................................................................
.............................. CYCLE    2 ......................................
................................................................................
   1    -16.1965400 -0.161965E+02  0.415E-04    4.93       0.0  T
   2    -16.1965400 -0.124878E-09  0.254E-04    4.93     113.7  T
   3    -16.1965400 -0.191136E-11  0.454E-05    4.93     635.8  T
speedup  1.00
cpu  time for SCC    0.00 s
wall time for SCC    0.00 s
speedup  1.00
cpu  time for grad    0.00 s
wall time for grad    0.00 s
 E :    -15.87963502  G :  0.000060    pred/act E change:  0.000D+00 -0.124D-07
Maxdispl :   0.0001   ||displ|| :   0.0001   Lambda : -0.383D-08
Largest |displ|/coords:  0.0001 (   3)  0.0001 (   6)  0.0001 (  11)
ancopt converged in          2 cycles
total energy gain (kcal):     -0.0000
================
 final structure:
================
    12
        -15.87963502
C          -1.14376148420243   -0.35907315969346    0.00005101480846
C           0.24084674486091   -0.35913720635599    0.00048163325596
C           0.93318724491791    0.83989078635993   -0.00007475309021
C           0.24094201464756    2.03903377188316   -0.00105817962187
C          -1.14361711695764    2.03909830428713   -0.00148201285551
C          -1.83598196544659    0.84002801913271   -0.00092838242600
H          -1.68401142008955   -1.29478517949066    0.00048452658399
H           0.78099701201496   -1.29490920094467    0.00128328650800
H           2.01366315899646    0.83988556999644    0.00030640651289
H           0.78127480104833    2.97469820238424   -0.00145211802898
H          -1.68385067441839    2.97482199932264   -0.00224543410630
H          -2.91645803537154    0.84012613311853   -0.00127698754041
 
 Bond Distances (Angstroems)
 ---------------------------
C1-C2=1.3846         C1-C6=1.3846         C1-H7=1.0805         C2-C1=1.3846         C2-C3=1.3846         C2-H8=1.0805         
C3-C2=1.3846         C3-C4=1.3846         C3-H9=1.0805         C4-C3=1.3846         C4-C5=1.3846         C4-H10=1.0805        
C5-C4=1.3846         C5-C6=1.3846         C5-H11=1.0805        C6-C1=1.3846         C6-C5=1.3846         C6-H12=1.0805        
H7-C1=1.0805         H8-C2=1.0805         H9-C3=1.0805         H10-C4=1.0805        H11-C5=1.0805        H12-C6=1.0805        
 C  H  Rav=1.0805 sigma=0.0000  Rmin=1.0805  Rmax=1.0805     6
 C  C  Rav=1.3846 sigma=0.0000  Rmin=1.3846  Rmax=1.3846     6
 
 selected bond angles (degree)
 --------------------
C6-C1-C2=120.00                H7-C1-C2=120.00                H7-C1-C6=120.00                C3-C2-C1=120.00                
H8-C2-C1=120.00                H8-C2-C3=120.00                C4-C3-C2=120.00                H9-C3-C2=120.00                
H9-C3-C4=120.00                C5-C4-C3=120.00                H10-C4-C3=120.00               H10-C4-C5=120.00               
C6-C5-C4=120.00                H11-C5-C4=120.00               H11-C5-C6=120.00               C5-C6-C1=120.00                
H12-C6-C1=120.00               H12-C6-C5=120.00               
 
 selected dihedral angles (degree)
 ---------------------------------
C3-C2-C1-C6=  0.00            C3-C2-C1-H7=180.00            H8-C2-C1-C6=180.00            H8-C2-C1-H7=  0.00            
C4-C3-C2-C1=  0.00            C4-C3-C2-H8=180.00            H9-C3-C2-C1=180.00            H9-C3-C2-H8=  0.00            
C5-C4-C3-C2=  0.00            C5-C4-C3-H9=180.00            H10-C4-C3-C2=180.00           H10-C4-C3-H9=  0.00           
C6-C5-C4-C3=  0.00            C6-C5-C4-H10=180.00           H11-C5-C4-C3=180.00           H11-C5-C4-H10=  0.00          
C5-C6-C1-C2=  0.00            C5-C6-C1-H7=180.00            H12-C6-C1-C2=180.00           H12-C6-C1-H7=  0.00           
C1-C6-C5-C4=  0.00            C1-C6-C5-H11=180.00           H12-C6-C5-C4=180.00           H12-C6-C5-H11=  0.00          
 
             =======================================
             |                                     |
             |        S C C  calculation           |
             |                                     |
             =======================================
 #proc     :            2
 Ncao      :           30
 Nao       :           30
 Nel       :           30
 T(el)     :   300.0
 intcut    :    25.0
 scfconv   :  0.100E-05
   qconv   :  0.100E-03
 intneglect:  0.100E-07
 broydamp  :      0.400
 Nshell    :           18
 iter      E             dE          RMSdq      gap      omega  full diag
   1    -16.1965400 -0.161965E+02  0.123E-05    4.93       0.0  T
   2    -16.1965400 -0.731859E-12  0.600E-06    4.93    4811.9  T
   3    -16.1965400 -0.298428E-12  0.313E-06    4.93    9224.0  T
speedup  1.00
cpu  time for SCC    0.00 s
wall time for SCC    0.00 s

          eigenvalues
 #    :           3          4          5          6          7          8          9         10
 occ. :        2.000      2.000      2.000      2.000      2.000      2.000      2.000      2.000
 eps  :       -16.640    -15.484    -15.484    -14.455    -13.470    -13.318    -12.963    -12.963
 #    :          11         12         13         14         15         16         17         18
 occ. :        2.000      2.000      2.000      2.000      2.000      0.000      0.000      0.000
 eps  :       -12.919    -11.467    -11.467    -10.954    -10.954     -6.019     -6.019     -2.447
 #    :          19         20         21         22         23         24         25         26
 occ. :        0.000      0.000      0.000      0.000      0.000      0.000      0.000      0.000
 eps  :         3.210      3.746      4.719      4.719      5.515      5.515     11.244     11.244
 

   #   Z            q   n(s)   n(p)   n(d)      C6AA      α(0)    relVol
   1   6 C     -0.029  1.079  2.950  0.000    28.730     8.798     0.712
   2   6 C     -0.029  1.079  2.950  0.000    28.730     8.798     0.712
   3   6 C     -0.029  1.079  2.950  0.000    28.730     8.798     0.712
   4   6 C     -0.029  1.079  2.950  0.000    28.730     8.798     0.712
   5   6 C     -0.029  1.079  2.950  0.000    28.730     8.798     0.712
   6   6 C     -0.029  1.079  2.950  0.000    28.730     8.798     0.712
   7   1 H      0.029  0.971  0.000  0.000     2.601     2.521     0.499
   8   1 H      0.029  0.971  0.000  0.000     2.601     2.521     0.499
   9   1 H      0.029  0.971  0.000  0.000     2.601     2.521     0.499
  10   1 H      0.029  0.971  0.000  0.000     2.601     2.521     0.499
  11   1 H      0.029  0.971  0.000  0.000     2.601     2.521     0.499
  12   1 H      0.029  0.971  0.000  0.000     2.601     2.521     0.499

 Mol. C6AA /au*bohr^6 :       1749.441671
 Mol. C8AA /au*bohr^6 :      42666.641520
 Mol. a(0) /au        :         67.918419

 
 Wiberg/Mayer (AO) data. WBOs > 0.1 written file <wbo>
 largest (>0.05) Wiberg bond orders for each atom
           total WBO             WBO to atom ...
     1  C   3.993    C    6 1.441    C    2 1.441    H    7 0.972    C    4 0.114
     2  C   3.993    C    3 1.441    C    1 1.441    H    8 0.972    C    5 0.114
     3  C   3.993    C    2 1.441    C    4 1.441    H    9 0.972    C    6 0.114
     4  C   3.993    C    5 1.441    C    3 1.441    H   10 0.972    C    1 0.114
     5  C   3.993    C    4 1.441    C    6 1.441    H   11 0.972    C    2 0.114
     6  C   3.993    C    1 1.441    C    5 1.441    H   12 0.972    C    3 0.114
     7  H   0.999    C    1 0.972
     8  H   0.999    C    2 0.972
     9  H   0.999    C    3 0.972
    10  H   0.999    C    4 0.972
    11  H   0.999    C    5 0.972
    12  H   0.999    C    6 0.972
 
molecular dipole:
                 x           y           z       tot (Debye)
 q only:        0.000       0.000       0.000
   full:        0.000       0.000       0.000       0.000
molecular quadrupole (traceless):
                xx          xy          yy          xz          yz          zz
 q only:        0.639       0.000       0.639       0.001      -0.001      -1.279
  q+dip:        2.668       0.000       2.668       0.003      -0.005      -5.336
   full:        1.334       0.000       1.334       0.001      -0.003      -2.667
 SCC converged in            3  cycles
 
SCC energy    :     -16.1965400
rep           :       0.3168982
ES            :       0.0007895
AES           :       0.0025176
AXC           :       0.0123891
disp          :      -0.0080191
XB            :       0.0000000
fix           :       0.0000000
total E       :     -15.8796350
atomizationE  :       3.7814664     2372.91
(atE without considerung molecular charge,
 total energy contains solvation terms)
H-L gap (eV)  :          4.9343
 !!!!!!!!!!!!!!!!!!!!!!!!!!!!!!!!!!!
 ! Note: the input coordinates are !
 ! NOT overwritten. The optimized  !
 ! ones are on file <xtbopt.coord> !
 ! (or on <xtbopt.xyz> if it was a !
 ! xyz file)                       !
 !!!!!!!!!!!!!!!!!!!!!!!!!!!!!!!!!!!
 
Molecule has the following symmetry elements: (i) (C6) (C3) 7*(C2) (S6) (S3) 7*(sigma) 
It seems to be the D6h point group
d6h symmetry found (for desy threshold:  0.10E+00) used in thermo
  q data taken from xtbrestart
  CAMM data taken from xtbrestart
 
             =======================================
             |                                     |
             |         Numerical Hessian           |
             |                                     |
             =======================================
step length          :   0.00500
SCC accuracy         :   0.30000
Hessian scale factor :   1.00000
frozen atoms in %    :   0.00000    0
RMS gradient         :   0.00006
estimated CPU  time      0.01 min
estimated wall time      0.01 min
 
 writing file <hessian>.
 
 projected vibrational frequencies (cm-1)
eig.   :       -0.00     0.00     0.00     0.00     0.00     0.00
eig.   :      368.38   368.38   579.03   579.08   657.55   692.70
eig.   :      882.11   882.12   930.54   930.55   937.05   957.03
eig.   :     1067.02  1090.51  1090.55  1176.16  1198.42  1198.42
eig.   :     1304.45  1319.67  1460.61  1460.70  1599.91  1599.96
eig.   :     3068.38  3071.88  3071.90  3083.79  3083.81  3092.24
 reduced masses (amu)
   1: 11.13   2: 10.51   3: 10.34   4: 10.65   5: 10.05   6:  9.90   7:  8.80   8:  8.80
   9: 11.09  10: 11.09  11: 10.60  12:  1.86  13:  3.32  14:  3.32  15:  4.22  16:  4.22
  17:  2.42  18: 11.29  19: 11.08  20:  4.71  21:  4.71  22:  1.01  23:  1.73  24:  1.73
  25:  3.32  26: 12.01  27:  8.29  28:  8.29  29: 11.44  30: 11.43  31:  1.73  32:  1.78
  33:  1.78  34:  1.88  35:  1.88  36:  1.94
 IR intensities (amu)
   1:  0.16   2:  0.11   3:  0.08   4:  0.13   5:  0.07   6:  0.05   7:  0.00   8:  0.00
   9:  0.00  10:  0.00  11:  0.00  12:  0.22  13:  0.00  14:  0.00  15:  0.00  16:  0.00
  17:  0.00  18:  0.00  19:  0.00  20:  0.10  21:  0.10  22:  0.01  23:  0.00  24:  0.00
  25:  0.00  26:  0.00  27:  0.10  28:  0.10  29:  0.00  30:  0.00  31:  0.00  32:  0.00
  33:  0.00  34:  0.42  35:  0.43  36:  0.00
 output can be read by thermo (or use thermo option).
 writing <g98.out> molden fake output.
 recommended (thermochemical) frequency scaling factor: 1.0
                    ==================
                    thermo calculation
                    ==================
Nvib :   30 Nimag : 0  symmetry :  d6h  rot number : 12  scale factor : 1.00 sthr :  50.
 
   temp. (K)  partition function   enthalpy   heat capacity  entropy
                                   cal/mol     cal/K/mol   cal/K/mol   J/K/mol
 298.15  VIB   1.97                 1096.279     11.913      5.027
         ROT  0.736E+04              888.752      2.981     20.676
         INT  0.145E+05             1985.031     14.893     25.703
         TR   0.668E+27             1481.254      4.968     38.964
         TOT                        3466.2848    19.8616    64.6672   270.5664
                     Eh         kcal/mol          kJ/mol 
ZPVE            0.975122E-01     61.1898         256.017    
H(0)-H(T)+PV    0.552388E-02     3.46628         14.5029    
H(T)            0.103036         64.6561         270.520    
T*S             0.307255E-01     19.2805         80.6694    
G(T)            0.723106E-01     45.3756         189.851    
    -15.80732444  <=== TOTAL FREE ENERGY in Eh incl. el.,ZPVE,RRHO,solv. parts
 
Eat (element increment corrected) /kcal :  1823.969
        -421.361  <=== HOF(298)/kcal, to be compared to exptl. data
 
 normal mode %tage of torsion character
   1:  0.00   2:  0.00   3:  0.00   4:  0.00   5:  0.00   6:  0.00   7:  1.00   8:  1.00
   9:  1.00  10:  1.00  11:  1.00  12:  1.00  13:  1.00  14:  1.00  15:  1.00  16:  1.00
  17:  1.00  18:  1.00  19:  1.00  20:  1.00  21:  1.00  22:  0.65  23:  1.00  24:  1.00
  25:  0.99  26:  1.00  27:  1.00  28:  1.00  29:  1.00  30:  1.00  31:  1.00  32:  1.00
  33:  0.99  34:  1.00  35:  1.00  36:  1.00
 recommended # of modes for mode following           4
 
speedup  0.98
cpu  time for all    0.64 s
wall time for all    0.66 s
