 Entering Gaussian System
 *********************************************
 Gaussian 98:
 frequency output generated by the xtb code
 *********************************************
                         Standard orientation:
 --------------------------------------------------------------------
  Center     Atomic     Atomic              Coordinates (Angstroms)
  Number     Number      Type              X           Y           Z
 --------------------------------------------------------------------
    1          6             0       -1.143761   -0.359073    0.000051
    2          6             0        0.240847   -0.359137    0.000482
    3          6             0        0.933187    0.839891   -0.000075
    4          6             0        0.240942    2.039034   -0.001058
    5          6             0       -1.143617    2.039098   -0.001482
    6          6             0       -1.835982    0.840028   -0.000928
    7          1             0       -1.684011   -1.294785    0.000485
    8          1             0        0.780997   -1.294909    0.001283
    9          1             0        2.013663    0.839886    0.000306
   10          1             0        0.781275    2.974698   -0.001452
   11          1             0       -1.683851    2.974822   -0.002245
   12          1             0       -2.916458    0.840126   -0.001277
 --------------------------------------------------------------------
     1 basis functions        1 primitive gaussians
     1 alpha electrons        1 beta electrons
 
 Harmonic frequencies (cm**-1), IR intensities (KM/Mole),
 Raman scattering activities (A**4/amu), Raman depolarization ratios,
 reduced masses (AMU), force constants (mDyne/A) and normal coordinates:
                      1                      2                      3
                        a                      a                      a 
 Frequencies --   368.3752               368.3793               579.0300
 Red. masses --    99.0000                99.0000                99.0000
 Frc consts  --    99.0000                99.0000                99.0000
 IR Inten    --    99.0000                99.0000                99.0000
 Raman Activ --     0.0000                 0.0000                 0.0000
 Depolar     --     0.0000                 0.0000                 0.0000
 Atom AN      X      Y      Z        X      Y      Z        X      Y      Z
   1   6     0.00  -0.00  -0.12    -0.00   0.00   0.47     0.31   0.33  -0.00
   2   6     0.00  -0.00  -0.35     0.00  -0.00  -0.34     0.31  -0.34   0.00
   3   6    -0.00   0.00   0.47     0.00  -0.00  -0.13    -0.00  -0.21   0.00
   4   6     0.00  -0.00  -0.12    -0.00   0.00   0.47    -0.31  -0.33   0.00
   5   6     0.00  -0.00  -0.35     0.00  -0.00  -0.34    -0.31   0.34  -0.00
   6   6    -0.00   0.00   0.47     0.00  -0.00  -0.13     0.00   0.21  -0.00
   7   1     0.00  -0.00  -0.08    -0.00   0.00   0.30     0.02   0.13  -0.00
   8   1     0.00  -0.00  -0.22     0.00  -0.00  -0.22     0.03  -0.13   0.00
   9   1    -0.00   0.00   0.30     0.00  -0.00  -0.08    -0.00   0.09  -0.00
  10   1     0.00  -0.00  -0.08    -0.00   0.00   0.30    -0.02  -0.13   0.00
  11   1     0.00  -0.00  -0.22     0.00  -0.00  -0.22    -0.03   0.13  -0.00
  12   1    -0.00   0.00   0.30     0.00  -0.00  -0.08     0.00  -0.09   0.00
                      4                      5                      6
                        a                      a                      a 
 Frequencies --   579.0844               657.5467               692.7040
 Red. masses --    99.0000                99.0000                99.0000
 Frc consts  --    99.0000                99.0000                99.0000
 IR Inten    --    99.0000                99.0000                99.0000
 Raman Activ --     0.0000                 0.0000                 0.0000
 Depolar     --     0.0000                 0.0000                 0.0000
 Atom AN      X      Y      Z        X      Y      Z        X      Y      Z
   1   6     0.02  -0.31   0.00    -0.00   0.00   0.38     0.00  -0.00  -0.11
   2   6    -0.03  -0.31   0.00     0.00  -0.00  -0.38     0.00  -0.00  -0.11
   3   6    -0.51   0.00  -0.00    -0.00   0.00   0.38     0.00  -0.00  -0.11
   4   6    -0.02   0.31  -0.00     0.00  -0.00  -0.38     0.00  -0.00  -0.11
   5   6     0.03   0.31  -0.00    -0.00   0.00   0.38     0.00  -0.00  -0.11
   6   6     0.51  -0.00   0.00     0.00  -0.00  -0.38     0.00  -0.00  -0.11
   7   1    -0.10  -0.03  -0.00    -0.00   0.00   0.15    -0.00   0.00   0.39
   8   1     0.10  -0.02   0.00     0.00  -0.00  -0.15    -0.00   0.00   0.39
   9   1    -0.14  -0.00  -0.00    -0.00   0.00   0.15    -0.00   0.00   0.39
  10   1     0.10   0.03   0.00     0.00  -0.00  -0.15    -0.00   0.00   0.39
  11   1    -0.10   0.02  -0.00    -0.00   0.00   0.15    -0.00   0.00   0.39
  12   1     0.14   0.00   0.00     0.00  -0.00  -0.15    -0.00   0.00   0.39
                      7                      8                      9
                        a                      a                      a 
 Frequencies --   882.1118               882.1187               930.5430
 Red. masses --    99.0000                99.0000                99.0000
 Frc consts  --    99.0000                99.0000                99.0000
 IR Inten    --    99.0000                99.0000                99.0000
 Raman Activ --     0.0000                 0.0000                 0.0000
 Depolar     --     0.0000                 0.0000                 0.0000
 Atom AN      X      Y      Z        X      Y      Z        X      Y      Z
   1   6     0.00  -0.00  -0.21    -0.00   0.00   0.17    -0.00   0.00   0.31
   2   6    -0.00  -0.00   0.04    -0.00   0.00   0.26    -0.00  -0.00  -0.13
   3   6    -0.00   0.00   0.25    -0.00   0.00   0.10     0.00  -0.00  -0.18
   4   6    -0.00   0.00   0.21     0.00  -0.00  -0.17    -0.00   0.00   0.31
   5   6    -0.00  -0.00  -0.04     0.00  -0.00  -0.26    -0.00  -0.00  -0.13
   6   6     0.00  -0.00  -0.25     0.00  -0.00  -0.10     0.00  -0.00  -0.18
   7   1    -0.00   0.00   0.40     0.00  -0.00  -0.32     0.00  -0.00  -0.48
   8   1     0.00  -0.00  -0.08     0.00  -0.00  -0.51    -0.00   0.00   0.20
   9   1     0.00  -0.00  -0.48     0.00  -0.00  -0.19    -0.00   0.00   0.28
  10   1     0.00  -0.00  -0.40    -0.00   0.00   0.32     0.00  -0.00  -0.48
  11   1    -0.00   0.00   0.08    -0.00   0.00   0.51    -0.00   0.00   0.20
  12   1    -0.00   0.00   0.48    -0.00   0.00   0.19    -0.00   0.00   0.28
                     10                     11                     12
                        a                      a                      a 
 Frequencies --   930.5483               937.0469               957.0297
 Red. masses --    99.0000                99.0000                99.0000
 Frc consts  --    99.0000                99.0000                99.0000
 IR Inten    --    99.0000                99.0000                99.0000
 Raman Activ --     0.0000                 0.0000                 0.0000
 Depolar     --     0.0000                 0.0000                 0.0000
 Atom AN      X      Y      Z        X      Y      Z        X      Y      Z
   1   6    -0.00   0.00   0.03     0.00  -0.00  -0.15    -0.20  -0.34   0.00
   2   6     0.00  -0.00  -0.28    -0.00   0.00   0.15    -0.20   0.34  -0.00
   3   6    -0.00   0.00   0.25     0.00  -0.00  -0.15     0.39  -0.00   0.00
   4   6    -0.00   0.00   0.03    -0.00   0.00   0.15    -0.20  -0.34   0.00
   5   6     0.00  -0.00  -0.28     0.00  -0.00  -0.15    -0.20   0.34  -0.00
   6   6    -0.00   0.00   0.25    -0.00   0.00   0.15     0.39  -0.00   0.00
   7   1     0.00  -0.00  -0.05    -0.00   0.00   0.38    -0.05  -0.09   0.00
   8   1    -0.00   0.00   0.44     0.00  -0.00  -0.38    -0.05   0.09  -0.00
   9   1     0.00  -0.00  -0.39    -0.00   0.00   0.38     0.10   0.00  -0.00
  10   1     0.00  -0.00  -0.05     0.00  -0.00  -0.38    -0.05  -0.09   0.00
  11   1    -0.00   0.00   0.44    -0.00   0.00   0.38    -0.05   0.09  -0.00
  12   1     0.00  -0.00  -0.39     0.00  -0.00  -0.38     0.10  -0.00  -0.00
                     13                     14                     15
                        a                      a                      a 
 Frequencies --  1067.0183              1090.5060              1090.5468
 Red. masses --    99.0000                99.0000                99.0000
 Frc consts  --    99.0000                99.0000                99.0000
 IR Inten    --    99.0000                99.0000                99.0000
 Raman Activ --     0.0000                 0.0000                 0.0000
 Depolar     --     0.0000                 0.0000                 0.0000
 Atom AN      X      Y      Z        X      Y      Z        X      Y      Z
   1   6    -0.20  -0.34   0.00     0.06  -0.20   0.00    -0.20  -0.17   0.00
   2   6     0.20  -0.34   0.00     0.06   0.20  -0.00     0.20  -0.17   0.00
   3   6     0.39  -0.00   0.00    -0.29   0.00  -0.00     0.00   0.18  -0.00
   4   6     0.20   0.34  -0.00     0.06  -0.20   0.00    -0.20  -0.17   0.00
   5   6    -0.20   0.34  -0.00     0.06   0.20  -0.00     0.20  -0.17   0.00
   6   6    -0.39  -0.00  -0.00    -0.29   0.00  -0.00     0.00   0.18  -0.00
   7   1    -0.06  -0.10   0.00     0.33  -0.24   0.00    -0.24   0.05  -0.00
   8   1     0.06  -0.10   0.00     0.33   0.24  -0.00     0.24   0.05   0.00
   9   1     0.12   0.00   0.00    -0.08   0.00  -0.00     0.00   0.46  -0.00
  10   1     0.06   0.10  -0.00     0.33  -0.24   0.00    -0.24   0.05  -0.00
  11   1    -0.06   0.10  -0.00     0.33   0.24  -0.00     0.24   0.05   0.00
  12   1    -0.12   0.00  -0.00    -0.08   0.00   0.00     0.00   0.46  -0.00
                     16                     17                     18
                        a                      a                      a 
 Frequencies --  1198.4159              1198.4208              1319.6735
 Red. masses --    99.0000                99.0000                99.0000
 Frc consts  --    99.0000                99.0000                99.0000
 IR Inten    --    99.0000                99.0000                99.0000
 Raman Activ --     0.0000                 0.0000                 0.0000
 Depolar     --     0.0000                 0.0000                 0.0000
 Atom AN      X      Y      Z        X      Y      Z        X      Y      Z
   1   6     0.08  -0.02   0.00     0.09  -0.08   0.00    -0.35   0.20  -0.00
   2   6     0.07   0.01   0.00    -0.10  -0.08   0.00     0.35   0.20  -0.00
   3   6    -0.00  -0.14   0.00    -0.03   0.01  -0.00    -0.00  -0.41   0.00
   4   6    -0.08   0.02  -0.00    -0.09   0.08  -0.00    -0.35   0.20  -0.00
   5   6    -0.07  -0.01  -0.00     0.10   0.08  -0.00     0.35   0.20  -0.00
   6   6     0.00   0.14  -0.00     0.03  -0.01   0.00     0.00  -0.41   0.00
   7   1     0.27  -0.15   0.00     0.40  -0.24   0.00    -0.01   0.00  -0.00
   8   1     0.22   0.12  -0.00    -0.43  -0.25   0.00     0.01   0.00  -0.00
   9   1    -0.00  -0.56   0.00    -0.01   0.03  -0.00    -0.00  -0.01   0.00
  10   1    -0.27   0.15  -0.00    -0.40   0.24  -0.00    -0.01   0.00  -0.00
  11   1    -0.22  -0.12   0.00     0.43   0.25  -0.00     0.01   0.00  -0.00
  12   1     0.00   0.56  -0.00     0.01  -0.03   0.00     0.00  -0.01   0.00
                     19                     20                     21
                        a                      a                      a 
 Frequencies --  1304.4532              1460.6958              1460.6116
 Red. masses --    99.0000                99.0000                99.0000
 Frc consts  --    99.0000                99.0000                99.0000
 IR Inten    --    99.0000                99.0000                99.0000
 Raman Activ --     0.0000                 0.0000                 0.0000
 Depolar     --     0.0000                 0.0000                 0.0000
 Atom AN      X      Y      Z        X      Y      Z        X      Y      Z
   1   6    -0.16   0.09  -0.00    -0.28  -0.11  -0.00    -0.23   0.28  -0.00
   2   6    -0.16  -0.09   0.00     0.29  -0.10   0.00    -0.22  -0.29   0.00
   3   6    -0.00  -0.19   0.00    -0.01   0.39  -0.00     0.27   0.01   0.00
   4   6     0.16  -0.09   0.00    -0.28  -0.11   0.00    -0.23   0.28  -0.00
   5   6     0.16   0.09  -0.00     0.29  -0.10   0.00    -0.22  -0.29   0.00
   6   6    -0.00   0.19  -0.00    -0.01   0.39  -0.00     0.27   0.01   0.00
   7   1     0.31  -0.18   0.00     0.10  -0.14   0.00     0.27  -0.11   0.00
   8   1     0.31   0.18  -0.00    -0.11  -0.14   0.00     0.26   0.10   0.00
   9   1    -0.00   0.36  -0.00    -0.00  -0.33   0.00     0.08  -0.01   0.00
  10   1    -0.31   0.18  -0.00     0.10  -0.14   0.00     0.27  -0.11   0.00
  11   1    -0.31  -0.18   0.00    -0.11  -0.14  -0.00     0.26   0.10  -0.00
  12   1    -0.00  -0.36   0.00    -0.00  -0.33   0.00     0.08  -0.01  -0.00
                     22                     23                     24
                        a                      a                      a 
 Frequencies --  1599.9117              1599.9648              1176.1632
 Red. masses --    99.0000                99.0000                99.0000
 Frc consts  --    99.0000                99.0000                99.0000
 IR Inten    --    99.0000                99.0000                99.0000
 Raman Activ --     0.0000                 0.0000                 0.0000
 Depolar     --     0.0000                 0.0000                 0.0000
 Atom AN      X      Y      Z        X      Y      Z        X      Y      Z
   1   6    -0.20   0.31  -0.00     0.42  -0.09   0.00    -0.01   0.00  -0.00
   2   6    -0.06  -0.27   0.00    -0.46  -0.17  -0.00     0.01   0.00  -0.00
   3   6    -0.03   0.51  -0.00     0.21   0.08   0.00    -0.00  -0.01   0.00
   4   6     0.20  -0.31   0.00    -0.42   0.09  -0.00    -0.01   0.00  -0.00
   5   6     0.06   0.27  -0.00     0.46   0.17   0.00     0.01   0.00  -0.00
   6   6     0.03  -0.51   0.00    -0.21  -0.08  -0.00     0.00  -0.01   0.00
   7   1     0.09  -0.00   0.00    -0.06   0.08  -0.00     0.35  -0.20   0.00
   8   1     0.06  -0.02   0.00     0.09   0.07  -0.00    -0.35  -0.20   0.00
   9   1    -0.01  -0.12   0.00     0.05  -0.02   0.00     0.00   0.41  -0.00
  10   1    -0.09   0.00  -0.00     0.06  -0.08   0.00     0.35  -0.20   0.00
  11   1    -0.06   0.02  -0.00    -0.09  -0.07   0.00    -0.35  -0.20   0.00
  12   1     0.01   0.12  -0.00    -0.05   0.02  -0.00     0.00   0.41  -0.00
                     25                     26                     27
                        a                      a                      a 
 Frequencies --  3071.8844              3068.3793              3083.7861
 Red. masses --    99.0000                99.0000                99.0000
 Frc consts  --    99.0000                99.0000                99.0000
 IR Inten    --    99.0000                99.0000                99.0000
 Raman Activ --     0.0000                 0.0000                 0.0000
 Depolar     --     0.0000                 0.0000                 0.0000
 Atom AN      X      Y      Z        X      Y      Z        X      Y      Z
   1   6     0.04   0.06  -0.00     0.05   0.09  -0.00     0.04   0.07  -0.00
   2   6     0.08  -0.13   0.00     0.05  -0.09   0.00    -0.08   0.14  -0.00
   3   6    -0.08  -0.00  -0.00    -0.10   0.00  -0.00    -0.08  -0.00  -0.00
   4   6    -0.04  -0.06   0.00     0.05   0.09  -0.00     0.04   0.07  -0.00
   5   6    -0.08   0.13  -0.00     0.05  -0.09   0.00    -0.08   0.14  -0.00
   6   6     0.08   0.00   0.00    -0.10   0.00  -0.00    -0.08  -0.00  -0.00
   7   1    -0.13  -0.22   0.00    -0.20  -0.34   0.00    -0.14  -0.25   0.00
   8   1    -0.28   0.48  -0.00    -0.20   0.34  -0.00     0.28  -0.48   0.00
   9   1     0.30   0.00   0.00     0.40  -0.00   0.00     0.27   0.00   0.00
  10   1     0.13   0.22  -0.00    -0.20  -0.34   0.00    -0.14  -0.25   0.00
  11   1     0.28  -0.48   0.00    -0.20   0.34  -0.00     0.28  -0.48   0.00
  12   1    -0.30  -0.00  -0.00     0.40  -0.00   0.00     0.27   0.00   0.00
                     28                     29                     30
                        a                      a                      a 
 Frequencies --  3083.8110              3092.2373              3071.8996
 Red. masses --    99.0000                99.0000                99.0000
 Frc consts  --    99.0000                99.0000                99.0000
 IR Inten    --    99.0000                99.0000                99.0000
 Raman Activ --     0.0000                 0.0000                 0.0000
 Depolar     --     0.0000                 0.0000                 0.0000
 Atom AN      X      Y      Z        X      Y      Z        X      Y      Z
   1   6    -0.07  -0.12   0.00    -0.06  -0.10   0.00    -0.07  -0.12   0.00
   2   6     0.00   0.00  -0.00     0.06  -0.10   0.00    -0.01   0.01  -0.00
   3   6    -0.14   0.00  -0.00     0.12   0.00   0.00    -0.13   0.00  -0.00
   4   6    -0.07  -0.12   0.00     0.06   0.10  -0.00     0.07   0.12  -0.00
   5   6     0.00   0.00  -0.00    -0.06   0.10  -0.00     0.01  -0.01   0.00
   6   6    -0.14   0.00  -0.00    -0.12   0.00  -0.00     0.13  -0.00   0.00
   7   1     0.24   0.41  -0.00     0.20   0.34  -0.00     0.25   0.43  -0.00
   8   1     0.00  -0.01   0.00    -0.20   0.34  -0.00     0.02  -0.03   0.00
   9   1     0.48  -0.00   0.00    -0.39   0.00  -0.00     0.47  -0.00   0.00
  10   1     0.24   0.41  -0.00    -0.20  -0.34   0.00    -0.25  -0.43   0.00
  11   1     0.00  -0.01   0.00     0.20  -0.34   0.00    -0.02   0.03  -0.00
  12   1     0.48  -0.00   0.00     0.39  -0.00   0.00    -0.47   0.00  -0.00
