 
        ______________________________________
       |                                      |
       |           ==================         |
       |                 x T B                |
       |           ==================         |
       |               S. Grimme              |
       |        Universitaet Bonn, MCTC       |
       |         2015-18, Version 5.8.1       |
       |      Sun May  6 11:39:08 CEST 2018   |
       |______________________________________|
 
        This code comes without any warranty
        for non-commercial, academia use only.
        Preliminary GFN2 test version.
        Test license to: Dow Chemical Company
        Cite GFN-xTB work as:
        S. Grimme, C. Bannwarth, P. Shushkov
        JCTC, 13 (2017) 1989-2009
        for GFN2:
        C. Bannwarth, S. Ehlert, S. Grimme
        to be published.
        sTDA-xTB:
        S. Grimme  &  C. Bannwarth, JCP 145 (2016) 054103
        in the mass-spec context additionally:
        V. Asgeirsson, C.Bauer, S. Grimme, Chem. Sci. 8 (2017) 4879
 
        with help from
        P. Shushkov, G. Brandenburg, S. Dohm, J. Pisarek,
        F. März, M. Checinski, S. Ehrlich, S. Spicher, 
        P. Pracht, E. Caldeweyher, S. Ehlert, and C. Bannwarth.
 
        usage        :
        xtb <coord_file> [options]
        where <coord_file> is a valid file of TM)
        (*coord, Bohr) or xmol (*xyz, Angstroem)
        format.

        options:
        -chrg <int>   : molecular charge
        -uhf  <int>   : # of unpaired electrons(=2*S)
        -nox          : skip second, extended part in sTDA-xTB
        -pop          : do population analysis
                      : (default for -nox)
        -mowr <real>  : cut MO write above (def.3 Eh)
        -molden       : write formatted molden file
        -parx <file>  : read parameters for sTDA-xTB
                        calc (def:~/.param_stda2.xtb)
        -parv <file>  : read parameters for vTB part in
                        sTDA-xTB (def: ~/.param_stda1.xtb)
        -xtemp <real> : el. temp for xTB (def. 0 K)
        -etemp <real> : el. temp for GFN (def. 300 K)
        -fod          : calculate the FOD and write
                        molden.input file with
                        appropriate occupations
                        for plotting. Def. T=12500 K
 
        -gfn1         : use GFN-xTB
        -gfn2         : use GFN2-xTB
        -gfn2d3       : GFN2-xTB with D3 instead of D4
        -grad         : GFNn-xTB gradient
        -acc <real>   : GFNn-xTB accuracy (def. 1.0)
        -opt [level]  : optimize at GFNn-xTB
                      : level=crude,vloose,loose,
                      :       tight,vtight
        -hess         : compute Hessian at GFNn-xTB
        -ohess        : optimize and compute Hessian
        -omd          : optimize and do MD
        -siman        : conformational search
        -screen       : opt. loop over ensemble
        -gmd          : annealed MD for GMD procedure
        -modef        : vib mode following
        -gbsa [string1] [string2]
                        use GBSA implicit solvent
                        for solvent [string1] and
                        solvation state [string2]=
                        reference, bar1M (default=1M)
        additional GFN/opt/MD/siman options read from
        $XTBHOME/.xtbrc or $set in coordinate file
 
       spin and charge state information can be on:
       <.CHRG> (charge) and <.UHF> (=nalpha-nbeta)
       -uhf and -chrg override the file info.
       useful machine settings:
       setenv MKL_NUM_THREADS <NCORE_ON_YOUR_MACHINE>
       setenv OMP_STACKSIZE 500m
       limit stacksize unlimited
 
       total energies in Eh, gaps/HL energies in eV
       please read REVISION and HOWTO files carefully
          72  days left until this code expires
 =============================
  # OMP threads =           2
 =============================
 
 xtbhome directory:/home/ua25450/dftb/
 
 argument            1 :-ohess
 
 name of molecule           :
 comment line               :
 number of atoms            :    15
 number of electrons        :    32
 charge                     :  0
 spin                       : 0.0
 first test random number   :  0.4214
 
 
 -----------------------------------------
  G F N (Geometry, Frequency, Non-covalent)
        parametrization, gfnver=           3
     D4 dispersion model
 /home/ua25450/dftb/.param_gfn2.xtb
 -----------------------------------------
      method parameters     
 k(s)        :  1.8500
 k(p)        :  2.2300
 k(d)        :  2.2300
 k(f)        :  2.0000
 kEN (H0ij)  : -2.0000
 D3 a1       :  0.5200
 D3 a2       :  5.0000
 D3 s8       :  2.7000
 D3atm       :  5.0000
 alphaj      :  2.0000
 
     -------------------------
     ! NO SOLVENT MODEL USED !
     -------------------------
 
 doing EN charges ...
 sum q : -0.1221245D-14
 point charge moment (au)
     X       Y       Z   
   0.1171   0.2494   0.0070  total (Debye):    0.701
 
            Z     q(EN)     CN     RAES       Cart. coordinates
     1  O   6.0   -0.17    2.02    1.83     0.55749    -0.97754     4.04382
     2  C   4.0   -0.05    4.05    3.71    -0.33860     1.57187     4.04255
     3  H   1.0    0.05    1.01    1.43    -2.36060     1.57558     4.03999
     4  H   1.0    0.05    1.01    1.43     0.33923     2.52372     2.39239
     5  C   4.0   -0.10    4.11    3.82     0.63097     2.94209     6.41985
     6  H   1.0    0.05    1.02    1.43     2.65297     2.93847     6.42235
     7  H   1.0    0.05    1.02    1.43    -0.04678     1.99017     8.07001
     8  H   1.0    0.11    1.02    1.43     2.37163    -0.98087     4.04382
     9  C   4.0   -0.10    4.07    3.75    -0.33418     5.68756     6.41855
    10  H   1.0    0.05    1.02    1.43    -2.35618     5.69118     6.41388
    11  H   1.0    0.05    1.02    1.43     0.34535     6.64010     4.76948
    12  C   4.0   -0.15    4.03    3.67     0.63284     7.05688     8.79741
    13  H   1.0    0.05    1.00    1.43    -0.04025     8.96357     8.79804
    14  H   1.0    0.05    1.00    1.43    -0.04419     6.10258    10.44649
    15  H   1.0    0.05    1.00    1.43     2.65484     7.05591     8.80056
 
  Z AO/shell   Hii/eV     exponent
  1     Wed Apr 25 08:07:45 CEST 2018   EN: 2.200 GM2: 0.406  GM3: 0.0800  RAES: 1.40
     1s    -10.707211    1.230000
  6     Wed Apr 25 08:07:45 CEST 2018   EN: 2.550 GM2: 0.538  GM3: 0.1500  RAES: 3.00
     2s    -13.970922    2.096432
     2p    -10.063292    1.800000
  8     Wed Apr 25 08:07:45 CEST 2018   EN: 3.440 GM2: 0.452  GM3:-0.0517  RAES: 1.80
     2s    -20.229985    2.439742
     2p    -15.503117    2.137023
 
Refinement of some symmetry elements was terminated before convergence was reached.
Some symmetry elements may remain unidentified.
Molecule has no symmetry elements
It seems to be the C1 point group
c1  symmetry found (for desy threshold:  0.10E+00) used in thermo
 no old-style atom pair restraing (fixing) potential
 
             =======================================
             |                                     |
             |        S C C  calculation           |
             |                                     |
             =======================================
 #proc     :            2
 Ncao      :           30
 Nao       :           30
 Nel       :           32
 T(el)     :   300.0
 intcut    :    25.0
 scfconv   :  0.100E-05
   qconv   :  0.100E-03
 intneglect:  0.100E-07
 broydamp  :      0.400
 Nshell    :           20
 iter      E             dE          RMSdq      gap      omega  full diag
   1    -17.9167460 -0.179167E+02  0.383E+00   12.05       0.0  T
   2    -17.9530946 -0.363487E-01  0.187E+00   11.92       1.0  T
   3    -17.9556302 -0.253563E-02  0.615E-01   11.81       1.0  T
   4    -17.9557892 -0.158977E-03  0.199E-01   11.81       1.0  T
   5    -17.9558483 -0.590921E-04  0.629E-02   11.86       1.0  T
   6    -17.9558546 -0.625185E-05  0.242E-02   11.87       1.1  T
   7    -17.9558549 -0.313658E-06  0.684E-03   11.87       3.8  T
   8    -17.9558549 -0.576341E-07  0.193E-03   11.87      13.4  T
   9    -17.9558549 -0.156893E-08  0.601E-04   11.87      43.0  T
  10    -17.9558549 -0.795126E-09  0.999E-05   11.87     258.5  T
speedup  1.00
cpu  time for SCC    0.01 s
wall time for SCC    0.01 s

          eigenvalues
 #    :           4          5          6          7          8          9         10         11
 occ. :        2.000      2.000      2.000      2.000      2.000      2.000      2.000      2.000
 eps  :       -16.084    -15.434    -15.134    -14.336    -14.079    -13.831    -13.093    -12.944
 #    :          12         13         14         15         16         17         18         19
 occ. :        2.000      2.000      2.000      2.000      2.000      0.000      0.000      0.000
 eps  :       -12.535    -12.123    -11.954    -11.759    -11.067      0.799      2.086      3.286
 #    :          20         21         22         23         24         25         26         27
 occ. :        0.000      0.000      0.000      0.000      0.000      0.000      0.000      0.000
 eps  :         3.900      4.092      4.864      5.134      5.511      6.145      6.461      7.101
 

   #   Z            q   n(s)   n(p)   n(d)      C6AA      α(0)    relVol
   1   8 O     -0.449  1.712  4.737  0.000    22.341     6.395     1.231
   2   6 C      0.073  1.034  2.893  0.000    19.690     6.379     0.516
   3   1 H      0.050  0.950  0.000  0.000     2.305     2.374     0.470
   4   1 H      0.023  0.977  0.000  0.000     2.683     2.561     0.507
   5   6 C     -0.077  1.052  3.025  0.000    22.032     6.690     0.541
   6   1 H      0.035  0.965  0.000  0.000     2.510     2.477     0.490
   7   1 H      0.049  0.951  0.000  0.000     2.330     2.386     0.472
   8   1 H      0.285  0.715  0.000  0.000     0.709     1.321     0.261
   9   6 C     -0.063  1.045  3.018  0.000    21.795     6.657     0.539
  10   1 H      0.035  0.965  0.000  0.000     2.508     2.476     0.490
  11   1 H      0.033  0.967  0.000  0.000     2.540     2.492     0.493
  12   6 C     -0.110  1.030  3.080  0.000    22.794     6.826     0.552
  13   1 H      0.038  0.962  0.000  0.000     2.468     2.456     0.486
  14   1 H      0.040  0.960  0.000  0.000     2.443     2.444     0.484
  15   1 H      0.038  0.962  0.000  0.000     2.467     2.456     0.486

 Mol. C6AA /au*bohr^6 :       1459.763598
 Mol. C8AA /au*bohr^6 :      29896.881771
 Mol. a(0) /au        :         56.390534

 
 Wiberg/Mayer (AO) data. WBOs > 0.1 written file <wbo>
 largest (>0.05) Wiberg bond orders for each atom
           total WBO             WBO to atom ...
     1  O   1.948    C    2 0.990    H    8 0.906
     2  C   3.955    C    5 0.998    O    1 0.990    H    4 0.976    H    3 0.976
     3  H   0.997    C    2 0.976
     4  H   0.999    C    2 0.976
     5  C   3.996    C    9 1.005    C    2 0.998    H    7 0.979    H    6 0.979
     6  H   0.999    C    5 0.979
     7  H   0.998    C    5 0.979
     8  H   0.919    O    1 0.906
     9  C   3.998    C   12 1.016    C    5 1.005    H   11 0.981    H   10 0.981
    10  H   0.999    C    9 0.981
    11  H   0.999    C    9 0.981
    12  C   3.997    C    9 1.016    H   15 0.989    H   14 0.989    H   13 0.988
    13  H   0.998    C   12 0.988
    14  H   0.998    C   12 0.989
    15  H   0.999    C   12 0.989
 
molecular dipole:
                 x           y           z       tot (Debye)
 q only:        0.309       0.522       0.109
   full:        0.813       0.654       0.076       2.066
molecular quadrupole (traceless):
                xx          xy          yy          xz          yz          zz
 q only:        0.453      -0.863      -0.672       1.994       3.993       0.218
  q+dip:        2.530      -0.621      -2.404       2.320       3.635      -0.126
   full:        2.096      -0.877      -1.704       2.617       4.083      -0.391
 SCC converged in           10  cycles
 
SCC energy    :     -17.9558549
rep           :       0.2372414
ES            :       0.0276478
AES           :       0.0037428
AXC           :       0.0056218
disp          :      -0.0069057
XB            :       0.0000000
fix           :       0.0000000
total E       :     -17.7186086
atomizationE  :       3.5264759     2212.90
(atE without considerung molecular charge,
 total energy contains solvation terms)
H-L gap (eV)  :         11.8666
 
             =======================================
             |                                     |
             |    Approximate Normal Coordinate    |
             |   Rational Function Optimization    |
             |                                     |
             =======================================
Ref. for RF algo: F.Eckert, P.Pulay, H.-J.Werner
                  J.Comput.Chem. 18 (1997) 1473.
ANC idea implemented by S. Grimme in the 2000ers (unpublished)
restraining potential by S. Ehrlich.
dumping coords to <xtbopt.coord> and <xtbopt.log
 optlevel               1
 Maxcycle             200
 Maxmicro              20
 Econv         1.000000000000000E-006
 Gconv         8.000000000000000E-004
 Maxdispl       1.00000000000000     
 Hlow          1.000000000000000E-002
 S6             20.0000000000000     
 Nvar               39

generating ANC from model Hessian ...
 Shifting diagonal of input Hessian by   5.719268989997221E-003
 Lowest  eigenvalues of input Hessian
   -0.000000   -0.000000   -0.000000    0.000000    0.000000    0.000000
    0.010000    0.010902    0.011610    0.017805    0.021931    0.025244
    0.049300    0.051142    0.058987    0.061003    0.064042    0.064381
 Highest eigenvalues
    1.204024    1.235855    1.258493    1.265884    1.304371    1.472034
 
cpu  time for ANC gen    0.01 s
wall time for ANC gen    0.01 s
................................................................................
.............................. CYCLE    1 ......................................
................................................................................
  q data taken from xtbrestart
  CAMM data taken from xtbrestart
   1    -17.9558549 -0.179559E+02  0.355E-05   11.87       0.0  T
   2    -17.9558549 -0.842704E-11  0.136E-05   11.87    1892.9  T
   3    -17.9558549 -0.447642E-12  0.856E-06   11.87    3014.7  T
speedup  1.00
cpu  time for SCC    0.00 s
wall time for SCC    0.00 s
speedup  1.00
cpu  time for grad    0.00 s
wall time for grad    0.00 s
 E :    -17.71860865  G :  0.071084    pred/act E change:  0.000D+00 -0.363D-10
Maxdispl :   0.1091   ||displ|| :   0.1769   Lambda : -0.587D-02
Largest |displ|/coords:  0.1091 (   5)  0.0600 (   6)  0.0513 (  19)
................................................................................
.............................. CYCLE    2 ......................................
................................................................................
   1    -17.9424314 -0.179424E+02  0.152E-01   12.05       0.0  T
   2    -17.9424748 -0.434405E-04  0.844E-02   12.05       1.0  T
   3    -17.9424769 -0.206694E-05  0.297E-02   12.05       1.0  T
   4    -17.9424771 -0.226016E-06  0.640E-03   12.05       4.0  T
   5    -17.9424772 -0.115477E-06  0.173E-03   12.05      14.9  T
   6    -17.9424772 -0.665644E-08  0.715E-04   12.05      36.1  T
speedup  1.00
cpu  time for SCC    0.00 s
wall time for SCC    0.00 s
speedup  1.00
cpu  time for grad    0.00 s
wall time for grad    0.00 s
 E :    -17.72230330  G :  0.023537    pred/act E change:  0.000D+00 -0.369D-02
Maxdispl :   0.0326   ||displ|| :   0.0693   Lambda : -0.901D-03
Largest |displ|/coords:  0.0326 (  15)  0.0239 (   6)  0.0194 (  19)
................................................................................
.............................. CYCLE    3 ......................................
................................................................................
   1    -17.9365650 -0.179366E+02  0.649E-02   12.24       0.0  T
   2    -17.9365772 -0.122150E-04  0.359E-02   12.24       1.0  T
   3    -17.9365776 -0.395136E-06  0.152E-02   12.24       1.7  T
   4    -17.9365776 -0.344516E-07  0.266E-03   12.24       9.7  T
   5    -17.9365777 -0.217929E-07  0.704E-04   12.24      36.7  T
speedup  1.00
cpu  time for SCC    0.01 s
wall time for SCC    0.01 s
speedup  1.00
cpu  time for grad    0.00 s
wall time for grad    0.00 s
 E :    -17.72277947  G :  0.004442    pred/act E change: -0.303D-02 -0.476D-03
Maxdispl :   0.0127   ||displ|| :   0.0241   Lambda : -0.438D-04
Largest |displ|/coords:  0.0127 (   3)  0.0097 (   6)  0.0080 (   2)
................................................................................
.............................. CYCLE    4 ......................................
................................................................................
   1    -17.9367304 -0.179367E+02  0.231E-02   12.26       0.0  T
   2    -17.9367307 -0.322046E-06  0.140E-02   12.26       1.8  T
   3    -17.9367307 -0.221980E-07  0.303E-03   12.26       8.5  T
   4    -17.9367308 -0.244420E-07  0.785E-04   12.26      32.9  T
   5    -17.9367308 -0.139751E-08  0.269E-04   12.26      96.1  T
speedup  1.00
cpu  time for SCC    0.01 s
wall time for SCC    0.01 s
speedup  1.00
cpu  time for grad    0.00 s
wall time for grad    0.00 s
 E :    -17.72280777  G :  0.001726    pred/act E change: -0.452D-03 -0.283D-04
Maxdispl :   0.0119   ||displ|| :   0.0235   Lambda : -0.141D-04
Largest |displ|/coords:  0.0119 (   6)  0.0111 (   2)  0.0109 (   3)
................................................................................
.............................. CYCLE    5 ......................................
................................................................................
   1    -17.9370393 -0.179370E+02  0.222E-02   12.28       0.0  T
   2    -17.9370395 -0.134098E-06  0.137E-02   12.28       1.9  T
   3    -17.9370395 -0.205379E-07  0.183E-03   12.28      14.1  T
   4    -17.9370395 -0.171572E-07  0.600E-04   12.28      43.0  T
   5    -17.9370395 -0.303828E-09  0.178E-04   12.28     145.0  T
speedup  1.00
cpu  time for SCC    0.01 s
wall time for SCC    0.01 s
speedup  1.00
cpu  time for grad    0.00 s
wall time for grad    0.00 s
 E :    -17.72281654  G :  0.000939    pred/act E change: -0.219D-04 -0.877D-05
Maxdispl :   0.0110   ||displ|| :   0.0167   Lambda : -0.376D-05
Largest |displ|/coords:  0.0110 (   2)  0.0073 (   6)  0.0065 (   3)
................................................................................
.............................. CYCLE    6 ......................................
................................................................................
   1    -17.9371920 -0.179372E+02  0.171E-02   12.29       0.0  T
   2    -17.9371921 -0.516941E-07  0.105E-02   12.29       2.4  T
   3    -17.9371921 -0.157213E-07  0.948E-04   12.29      27.2  T
   4    -17.9371921 -0.436911E-08  0.440E-04   12.29      58.7  T
speedup  1.00
cpu  time for SCC    0.00 s
wall time for SCC    0.00 s
speedup  1.00
cpu  time for grad    0.00 s
wall time for grad    0.00 s
 E :    -17.72281933  G :  0.000615    pred/act E change: -0.705D-05 -0.279D-05
Maxdispl :   0.0171   ||displ|| :   0.0218   Lambda : -0.308D-05
Largest |displ|/coords:  0.0171 (   2)  0.0083 (   6)  0.0054 (   3)
................................................................................
.............................. CYCLE    7 ......................................
................................................................................
   1    -17.9372304 -0.179372E+02  0.215E-02   12.29       0.0  T
   2    -17.9372304 -0.562477E-07  0.132E-02   12.29       2.0  T
   3    -17.9372305 -0.240722E-07  0.934E-04   12.29      27.7  T
   4    -17.9372305 -0.255016E-08  0.527E-04   12.29      49.0  T
speedup  1.00
cpu  time for SCC    0.00 s
wall time for SCC    0.00 s
speedup  1.00
cpu  time for grad    0.00 s
wall time for grad    0.00 s
 E :    -17.72282139  G :  0.000465    pred/act E change: -0.188D-05 -0.206D-05
Maxdispl :   0.0142   ||displ|| :   0.0161   Lambda : -0.124D-05
Largest |displ|/coords:  0.0142 (   2)  0.0046 (   6)  0.0037 (   4)
................................................................................
.............................. CYCLE    8 ......................................
................................................................................
   1    -17.9371897 -0.179372E+02  0.139E-02   12.29       0.0  T
   2    -17.9371897 -0.131163E-07  0.847E-03   12.29       3.0  T
   3    -17.9371897 -0.761651E-08  0.489E-04   12.29      52.9  T
   4    -17.9371897 -0.205976E-09  0.286E-04   12.29      90.2  T
speedup  1.00
cpu  time for SCC    0.00 s
wall time for SCC    0.00 s
speedup  1.00
cpu  time for grad    0.00 s
wall time for grad    0.00 s
 E :    -17.72282228  G :  0.000396    pred/act E change: -0.154D-05 -0.896D-06
Maxdispl :   0.0158   ||displ|| :   0.0172   Lambda : -0.911D-06
Largest |displ|/coords:  0.0158 (   2)  0.0040 (   1)  0.0034 (   4)
ancopt converged in          8 cycles
total energy gain (kcal):     -2.6441
================
 final structure:
================
    15
        -17.72282228
O           0.25683218337939   -0.52471707177142    2.10672530067496
C          -0.15298543145282    0.82185799657645    2.13736430124471
H          -1.24503519611741    0.79235204291384    2.12163216150724
H           0.18984354498665    1.34802125465474    1.23325943883740
C           0.33676067581997    1.56448903621754    3.38101541233612
H           1.43115188380302    1.55958448261182    3.39393402931642
H          -0.00945855493861    1.03064857939574    4.26858544702533
H           1.21848102751709   -0.55635780297371    2.16401817092436
C          -0.16414928265507    3.00557552779090    3.41673327478213
H          -1.25595815737090    3.00665461563807    3.40232679725654
H           0.17879430546956    3.52834968669895    2.52078130167938
C           0.32842697664729    3.74391658266762    4.65552233146020
H          -0.03861186469035    4.76738121801780    4.66097956423668
H          -0.02145704980666    3.24864584709565    5.55838434097715
H           1.41572622940884    3.76931652446600    4.67864224774137
 
 Bond Distances (Angstroems)
 ---------------------------
O1-C2=1.4079         O1-H8=0.9639         C2-O1=1.4079         C2-H3=1.0926         C2-H4=1.1008         C2-C5=1.5291         
H3-C2=1.0926         H4-C2=1.1008         C5-C2=1.5291         C5-H6=1.0945         C5-H7=1.0921         C5-C9=1.5261         
H6-C5=1.0945         H7-C5=1.0921         H8-O1=0.9639         C9-C5=1.5261         C9-H10=1.0919        C9-H11=1.0925        
C9-C12=1.5239        H10-C9=1.0919        H11-C9=1.0925        C12-C9=1.5239        C12-H13=1.0873       C12-H14=1.0876       
C12-H15=1.0878       H13-C12=1.0873       H14-C12=1.0876       H15-C12=1.0878       
 C  H  Rav=1.0919 sigma=0.0040  Rmin=1.0873  Rmax=1.1008     9
 C  C  Rav=1.5264 sigma=0.0021  Rmin=1.5239  Rmax=1.5291     3
 O  H  Rav=0.9639 sigma=0.0000  Rmin=0.9639  Rmax=0.9639     1
 O  C  Rav=1.4079 sigma=0.0000  Rmin=1.4079  Rmax=1.4079     1
 
 selected bond angles (degree)
 --------------------
H8-O1-C2=108.69                H3-C2-O1=105.36                H4-C2-O1=110.40                H4-C2-H3=108.20                
C5-C2-O1=112.89                C5-C2-H3=110.18                C5-C2-H4=109.64                H6-C5-C2=109.13                
H7-C5-C2=108.79                H7-C5-H6=107.77                C9-C5-C2=111.87                C9-C5-H6=109.40                
C9-C5-H7=109.79                H10-C9-C5=109.20               H11-C9-C5=109.25               H11-C9-H10=107.61              
C12-C9-C5=111.74               C12-C9-H10=109.48              C12-C9-H11=109.47              
 
 selected dihedral angles (degree)
 ---------------------------------
H3-C2-O1-H8=182.82            H4-C2-O1-H8= 66.22            C5-C2-O1-H8=303.11            H6-C5-C2-O1= 60.96            
H6-C5-C2-H3=178.43            H6-C5-C2-H4=297.42            H7-C5-C2-O1=303.62            H7-C5-C2-H3= 61.10            
H7-C5-C2-H4=180.08            C9-C5-C2-O1=182.16            C9-C5-C2-H3=299.64            C9-C5-C2-H4= 58.62            
H10-C9-C5-C2= 58.88           H10-C9-C5-H6=179.92           H10-C9-C5-H7=297.99           H11-C9-C5-C2=301.43           
H11-C9-C5-H6= 62.47           H11-C9-C5-H7=180.55           C12-C9-C5-C2=180.14           C12-C9-C5-H6=301.19           
C12-C9-C5-H7= 59.26           
 
             =======================================
             |                                     |
             |        S C C  calculation           |
             |                                     |
             =======================================
 #proc     :            2
 Ncao      :           30
 Nao       :           30
 Nel       :           32
 T(el)     :   300.0
 intcut    :    25.0
 scfconv   :  0.100E-05
   qconv   :  0.100E-03
 intneglect:  0.100E-07
 broydamp  :      0.400
 Nshell    :           20
 iter      E             dE          RMSdq      gap      omega  full diag
   1    -17.9371897 -0.179372E+02  0.457E-05   12.29       0.0  T
   2    -17.9371897 -0.460432E-11  0.266E-05   12.29     972.4  T
   3    -17.9371897 -0.671463E-12  0.137E-05   12.29    1878.2  T
speedup  1.00
cpu  time for SCC    0.00 s
wall time for SCC    0.00 s

          eigenvalues
 #    :           4          5          6          7          8          9         10         11
 occ. :        2.000      2.000      2.000      2.000      2.000      2.000      2.000      2.000
 eps  :       -16.139    -15.422    -15.122    -14.315    -14.139    -13.848    -13.129    -12.924
 #    :          12         13         14         15         16         17         18         19
 occ. :        2.000      2.000      2.000      2.000      2.000      0.000      0.000      0.000
 eps  :       -12.585    -12.063    -11.950    -11.690    -11.108      1.181      2.340      3.047
 #    :          20         21         22         23         24         25         26         27
 occ. :        0.000      0.000      0.000      0.000      0.000      0.000      0.000      0.000
 eps  :         3.568      3.962      4.303      4.494      4.881      5.307      5.631      6.553
 

   #   Z            q   n(s)   n(p)   n(d)      C6AA      α(0)    relVol
   1   8 O     -0.442  1.710  4.732  0.000    22.186     6.373     1.226
   2   6 C      0.080  1.036  2.884  0.000    19.591     6.365     0.515
   3   1 H      0.047  0.953  0.000  0.000     2.356     2.400     0.475
   4   1 H      0.015  0.985  0.000  0.000     2.814     2.623     0.519
   5   6 C     -0.072  1.056  3.016  0.000    21.949     6.679     0.541
   6   1 H      0.030  0.970  0.000  0.000     2.578     2.511     0.497
   7   1 H      0.044  0.956  0.000  0.000     2.384     2.414     0.478
   8   1 H      0.285  0.715  0.000  0.000     0.707     1.320     0.261
   9   6 C     -0.055  1.048  3.008  0.000    21.656     6.637     0.537
  10   1 H      0.033  0.967  0.000  0.000     2.546     2.495     0.494
  11   1 H      0.030  0.970  0.000  0.000     2.581     2.512     0.497
  12   6 C     -0.103  1.036  3.067  0.000    22.671     6.810     0.551
  13   1 H      0.036  0.964  0.000  0.000     2.492     2.469     0.488
  14   1 H      0.037  0.963  0.000  0.000     2.482     2.463     0.487
  15   1 H      0.035  0.965  0.000  0.000     2.506     2.475     0.490

 Mol. C6AA /au*bohr^6 :       1466.466986
 Mol. C8AA /au*bohr^6 :      29964.881466
 Mol. a(0) /au        :         56.546288

 
 Wiberg/Mayer (AO) data. WBOs > 0.1 written file <wbo>
 largest (>0.05) Wiberg bond orders for each atom
           total WBO             WBO to atom ...
     1  O   1.960    C    2 0.999    H    8 0.904
     2  C   3.956    O    1 0.999    C    5 0.998    H    3 0.973    H    4 0.970
     3  H   0.998    C    2 0.973
     4  H   1.000    C    2 0.970
     5  C   3.996    C    9 1.008    C    2 0.998    H    7 0.977    H    6 0.976
     6  H   0.999    C    5 0.976
     7  H   0.998    C    5 0.977
     8  H   0.919    O    1 0.904
     9  C   3.998    C   12 1.019    C    5 1.008    H   10 0.978    H   11 0.978
    10  H   0.999    C    9 0.978
    11  H   0.999    C    9 0.978
    12  C   3.997    C    9 1.019    H   15 0.988    H   14 0.988    H   13 0.987
    13  H   0.998    C   12 0.987
    14  H   0.999    C   12 0.988
    15  H   0.999    C   12 0.988
 
molecular dipole:
                 x           y           z       tot (Debye)
 q only:        0.327       0.480       0.153
   full:        0.505       0.605       0.145       2.037
molecular quadrupole (traceless):
                xx          xy          yy          xz          yz          zz
 q only:        0.180      -0.967      -0.726       2.152       3.739       0.546
  q+dip:        2.041      -0.612      -2.536       2.640       3.366       0.494
   full:        1.646      -0.937      -1.865       2.936       3.802       0.219
 SCC converged in            3  cycles
 
SCC energy    :     -17.9371897
rep           :       0.2143626
ES            :       0.0264452
AES           :       0.0040682
AXC           :       0.0059524
disp          :      -0.0069127
XB            :       0.0000000
fix           :       0.0000000
total E       :     -17.7228223
atomizationE  :       3.5306895     2215.54
(atE without considerung molecular charge,
 total energy contains solvation terms)
H-L gap (eV)  :         12.2898
 !!!!!!!!!!!!!!!!!!!!!!!!!!!!!!!!!!!
 ! Note: the input coordinates are !
 ! NOT overwritten. The optimized  !
 ! ones are on file <xtbopt.coord> !
 ! (or on <xtbopt.xyz> if it was a !
 ! xyz file)                       !
 !!!!!!!!!!!!!!!!!!!!!!!!!!!!!!!!!!!
 
Refinement of some symmetry elements was terminated before convergence was reached.
Some symmetry elements may remain unidentified.
Molecule has no symmetry elements
It seems to be the C1 point group
c1  symmetry found (for desy threshold:  0.10E+00) used in thermo
  q data taken from xtbrestart
  CAMM data taken from xtbrestart
 
             =======================================
             |                                     |
             |         Numerical Hessian           |
             |                                     |
             =======================================
step length          :   0.00500
SCC accuracy         :   0.30000
Hessian scale factor :   1.00000
frozen atoms in %    :   0.00000    0
RMS gradient         :   0.00040
estimated CPU  time      0.01 min
estimated wall time      0.01 min
 
 writing file <hessian>.
 
 projected vibrational frequencies (cm-1)
eig.   :       -0.00    -0.00     0.00     0.00     0.00     0.00
eig.   :      100.24   104.63   187.47   234.36   348.25   394.00
eig.   :      440.56   777.79   833.51   943.01   948.09  1025.75
eig.   :     1082.86  1095.35  1110.39  1134.07  1211.77  1253.36
eig.   :     1274.57  1280.86  1321.44  1351.68  1370.39  1416.35
eig.   :     1483.97  1493.76  1498.51  1503.83  1506.10  2861.70
eig.   :     2948.23  2969.31  2980.04  2985.63  2988.45  3032.32
eig.   :     3036.11  3040.85  3541.60
 reduced masses (amu)
   1: 10.15   2: 11.67   3: 10.36   4: 11.90   5: 10.81   6:  7.54   7:  9.19   8:  6.19
   9:  9.94  10:  2.15  11:  2.55  12:  9.94  13: 10.86  14:  1.73  15:  2.35  16:  5.58
  17:  2.68  18: 10.35  19:  5.34  20:  9.55  21:  8.59  22:  7.48  23:  5.40  24:  3.61
  25:  2.14  26:  2.64  27:  3.34  28:  3.79  29:  5.19  30:  3.17  31:  1.85  32:  1.97
  33:  1.80  34:  1.53  35:  1.66  36:  1.73  37:  1.80  38:  1.87  39:  1.64  40:  1.74
  41:  1.56  42:  1.92  43:  1.90  44:  1.33  45:  1.87
 IR intensities (amu)
   1:  0.23   2:  0.13   3:  0.14   4:  0.16   5:  0.20   6:  0.15   7:  0.26   8:  0.15
   9:  0.28  10:  0.02  11:  0.51  12:  0.17  13:  0.52  14:  0.04  15:  0.08  16:  0.11
  17:  0.13  18:  0.64  19:  0.38  20:  0.85  21:  0.52  22:  0.27  23:  0.11  24:  0.17
  25:  0.05  26:  0.08  27:  0.31  28:  0.40  29:  0.34  30:  0.03  31:  0.10  32:  0.06
  33:  0.05  34:  0.03  35:  0.01  36:  0.36  37:  0.17  38:  0.22  39:  0.15  40:  0.30
  41:  0.32  42:  0.28  43:  0.26  44:  0.17  45:  0.12
 output can be read by thermo (or use thermo option).
 writing <g98.out> molden fake output.
 recommended (thermochemical) frequency scaling factor: 1.0
                    ==================
                    thermo calculation
                    ==================
Nvib :   39 Nimag : 0  symmetry :   c1  rot number :  1  scale factor : 1.00 sthr :  50.
omega=100.24     Gvib=    -1.029     Grot=    -0.850     Gused=    -1.018
omega=104.63     Gvib=    -1.004     Grot=    -0.838     Gused=    -0.995
omega=187.47     Gvib=    -0.672     Grot=    -0.665     Gused=    -0.672
omega=234.36     Gvib=    -0.550     Grot=    -0.599     Gused=    -0.550
 
   temp. (K)  partition function   enthalpy   heat capacity  entropy
                                   cal/mol     cal/K/mol   cal/K/mol   J/K/mol
 298.15  VIB   29.8                 2503.731     17.151     15.082
         ROT  0.104E+06              888.752      2.981     25.939
         INT  0.310E+07             3392.483     20.132     41.022
         TR   0.617E+27             1481.254      4.968     38.808
         TOT                        4873.7372    25.1004    79.8293   334.0047
                     Eh         kcal/mol          kJ/mol 
ZPVE            0.134665         84.5037         353.562    
H(0)-H(T)+PV    0.776679E-02     4.87374         20.3916    
H(T)            0.142432         89.3774         373.954    
T*S             0.379295E-01     23.8011         99.5835    
G(T)            0.104502         65.5763         274.370    
    -17.61831985  <=== TOTAL FREE ENERGY in Eh incl. el.,ZPVE,RRHO,solv. parts
 
Eat (element increment corrected) /kcal :  1593.797
        -240.281  <=== HOF(298)/kcal, to be compared to exptl. data
 
 normal mode %tage of torsion character
   1:  0.00   2:  0.00   3:  0.00   4:  0.00   5:  0.00   6:  0.00   7:  0.52   8:  0.62
   9:  0.21  10:  0.88  11:  0.84  12:  0.10  13:  0.13  14:  0.52  15:  0.56  16:  0.12
  17:  0.56  18:  0.11  19:  0.14  20:  0.08  21:  0.07  22:  0.12  23:  0.53  24:  0.25
  25:  0.16  26:  0.08  27:  0.04  28:  0.11  29:  0.08  30:  0.00  31:  0.87  32:  0.64
  33:  0.62  34:  0.93  35:  0.81  36:  0.21  37:  0.23  38:  0.15  39:  0.09  40:  0.01
  41:  0.05  42:  0.05  43:  0.04  44:  0.00  45:  0.01
 recommended # of modes for mode following           4
 
speedup  0.98
cpu  time for all    0.80 s
wall time for all    0.82 s
