 
        ______________________________________
       |                                      |
       |           ==================         |
       |                 x T B                |
       |           ==================         |
       |               S. Grimme              |
       |        Universitaet Bonn, MCTC       |
       |         2015-18, Version 5.8.1       |
       |      Sun May  6 11:39:08 CEST 2018   |
       |______________________________________|
 
        This code comes without any warranty
        for non-commercial, academia use only.
        Preliminary GFN2 test version.
        Test license to: Dow Chemical Company
        Cite GFN-xTB work as:
        S. Grimme, C. Bannwarth, P. Shushkov
        JCTC, 13 (2017) 1989-2009
        for GFN2:
        C. Bannwarth, S. Ehlert, S. Grimme
        to be published.
        sTDA-xTB:
        S. Grimme  &  C. Bannwarth, JCP 145 (2016) 054103
        in the mass-spec context additionally:
        V. Asgeirsson, C.Bauer, S. Grimme, Chem. Sci. 8 (2017) 4879
 
        with help from
        P. Shushkov, G. Brandenburg, S. Dohm, J. Pisarek,
        F. März, M. Checinski, S. Ehrlich, S. Spicher, 
        P. Pracht, E. Caldeweyher, S. Ehlert, and C. Bannwarth.
 
        usage        :
        xtb <coord_file> [options]
        where <coord_file> is a valid file of TM)
        (*coord, Bohr) or xmol (*xyz, Angstroem)
        format.

        options:
        -chrg <int>   : molecular charge
        -uhf  <int>   : # of unpaired electrons(=2*S)
        -nox          : skip second, extended part in sTDA-xTB
        -pop          : do population analysis
                      : (default for -nox)
        -mowr <real>  : cut MO write above (def.3 Eh)
        -molden       : write formatted molden file
        -parx <file>  : read parameters for sTDA-xTB
                        calc (def:~/.param_stda2.xtb)
        -parv <file>  : read parameters for vTB part in
                        sTDA-xTB (def: ~/.param_stda1.xtb)
        -xtemp <real> : el. temp for xTB (def. 0 K)
        -etemp <real> : el. temp for GFN (def. 300 K)
        -fod          : calculate the FOD and write
                        molden.input file with
                        appropriate occupations
                        for plotting. Def. T=12500 K
 
        -gfn1         : use GFN-xTB
        -gfn2         : use GFN2-xTB
        -gfn2d3       : GFN2-xTB with D3 instead of D4
        -grad         : GFNn-xTB gradient
        -acc <real>   : GFNn-xTB accuracy (def. 1.0)
        -opt [level]  : optimize at GFNn-xTB
                      : level=crude,vloose,loose,
                      :       tight,vtight
        -hess         : compute Hessian at GFNn-xTB
        -ohess        : optimize and compute Hessian
        -omd          : optimize and do MD
        -siman        : conformational search
        -screen       : opt. loop over ensemble
        -gmd          : annealed MD for GMD procedure
        -modef        : vib mode following
        -gbsa [string1] [string2]
                        use GBSA implicit solvent
                        for solvent [string1] and
                        solvation state [string2]=
                        reference, bar1M (default=1M)
        additional GFN/opt/MD/siman options read from
        $XTBHOME/.xtbrc or $set in coordinate file
 
       spin and charge state information can be on:
       <.CHRG> (charge) and <.UHF> (=nalpha-nbeta)
       -uhf and -chrg override the file info.
       useful machine settings:
       setenv MKL_NUM_THREADS <NCORE_ON_YOUR_MACHINE>
       setenv OMP_STACKSIZE 500m
       limit stacksize unlimited
 
       total energies in Eh, gaps/HL energies in eV
       please read REVISION and HOWTO files carefully
          72  days left until this code expires
 =============================
  # OMP threads =           2
 =============================
 
 xtbhome directory:/home/ua25450/dftb/
 
 argument            1 :-ohess
 
 name of molecule           :
 comment line               :
 number of atoms            :    26
 number of electrons        :    50
 charge                     :  0
 spin                       : 0.0
 first test random number   :  0.3650
 
 
 -----------------------------------------
  G F N (Geometry, Frequency, Non-covalent)
        parametrization, gfnver=           3
     D4 dispersion model
 /home/ua25450/dftb/.param_gfn2.xtb
 -----------------------------------------
      method parameters     
 k(s)        :  1.8500
 k(p)        :  2.2300
 k(d)        :  2.2300
 k(f)        :  2.0000
 kEN (H0ij)  : -2.0000
 D3 a1       :  0.5200
 D3 a2       :  5.0000
 D3 s8       :  2.7000
 D3atm       :  5.0000
 alphaj      :  2.0000
 
     -------------------------
     ! NO SOLVENT MODEL USED !
     -------------------------
 
 doing EN charges ...
 sum q :  0.4440892D-15
 point charge moment (au)
     X       Y       Z   
   0.0002  -0.0040   0.0020  total (Debye):    0.011
 
            Z     q(EN)     CN     RAES       Cart. coordinates
     1  C   4.0   -0.13    4.02    3.65    -5.14678    -0.54751    -0.13154
     2  H   1.0    0.04    1.00    1.43    -4.40878    -2.46562    -0.07555
     3  H   1.0    0.04    1.00    1.43    -4.41028     0.38184    -1.81037
     4  H   1.0    0.04    1.00    1.43    -7.19421    -0.64935    -0.29130
     5  C   4.0   -0.09    4.06    3.72    -4.39078     0.89421     2.24379
     6  H   1.0    0.04    1.01    1.43    -5.11690     2.82391     2.13470
     7  C   4.0   -0.09    4.12    3.84    -5.39876    -0.36873     4.63433
     8  H   1.0    0.04    1.01    1.43    -7.45823    -0.47749     4.52901
     9  H   1.0    0.04    1.01    1.43    -4.67869    -2.30168     4.73636
    10  C   4.0   -0.09    4.12    3.83    -4.64180     1.06089     7.02344
    11  H   1.0    0.04    1.01    1.43    -2.58209     1.15258     7.13865
    12  H   1.0    0.05    1.01    1.43    -5.35053     2.99377     6.89869
    13  H   1.0    0.04    1.01    1.43    -2.33193     1.00830     2.35040
    14  C   4.0   -0.09    4.11    3.82    -5.67198    -0.20614     9.40339
    15  H   1.0    0.04    1.01    1.43    -5.07688    -2.18434     9.40665
    16  H   1.0    0.04    1.01    1.43    -7.73610    -0.18007     9.35124
    17  C   4.0   -0.09    4.11    3.83    -4.76380     1.03053    11.85154
    18  H   1.0    0.04    1.01    1.43    -5.35949    -0.14471    13.44275
    19  H   1.0    0.04    1.01    1.43    -2.69956     1.08726    11.86089
    20  C   4.0   -0.09    4.06    3.72    -5.78969     3.69915    12.24702
    21  H   1.0    0.04    1.01    1.43    -5.08445     4.94445    10.76232
    22  H   1.0    0.04    1.01    1.43    -7.85002     3.66224    12.11451
    23  C   4.0   -0.13    4.02    3.65    -5.01581     4.76041    14.81003
    24  H   1.0    0.04    1.00    1.43    -2.96697     4.82092    14.97583
    25  H   1.0    0.04    1.00    1.43    -5.74239     6.66757    15.05518
    26  H   1.0    0.04    1.00    1.43    -5.75112     3.58649    16.33030
 
  Z AO/shell   Hii/eV     exponent
  1     Wed Apr 25 08:07:45 CEST 2018   EN: 2.200 GM2: 0.406  GM3: 0.0800  RAES: 1.40
     1s    -10.707211    1.230000
  6     Wed Apr 25 08:07:45 CEST 2018   EN: 2.550 GM2: 0.538  GM3: 0.1500  RAES: 3.00
     2s    -13.970922    2.096432
     2p    -10.063292    1.800000
 
Refinement of some symmetry elements was terminated before convergence was reached.
Some symmetry elements may remain unidentified.
Molecule has no symmetry elements
It seems to be the C1 point group
c1  symmetry found (for desy threshold:  0.10E+00) used in thermo
 no old-style atom pair restraing (fixing) potential
 
             =======================================
             |                                     |
             |        S C C  calculation           |
             |                                     |
             =======================================
 #proc     :            2
 Ncao      :           50
 Nao       :           50
 Nel       :           50
 T(el)     :   300.0
 intcut    :    25.0
 scfconv   :  0.100E-05
   qconv   :  0.100E-03
 intneglect:  0.100E-07
 broydamp  :      0.400
 Nshell    :           34
  q data taken from xtbrestart
  CAMM data taken from xtbrestart
 iter      E             dE          RMSdq      gap      omega  full diag
   1    -26.7190935 -0.267191E+02  0.103E-06   12.76       0.0  T
   2    -26.7190935 -0.355271E-14  0.516E-07   12.76   38025.5  T
   3    -26.7190935  0.142109E-13  0.720E-08   12.76  100000.0  T
speedup  1.00
cpu  time for SCC    0.01 s
wall time for SCC    0.01 s

          eigenvalues
 #    :          13         14         15         16         17         18         19         20
 occ. :        2.000      2.000      2.000      2.000      2.000      2.000      2.000      2.000
 eps  :       -13.224    -13.068    -12.864    -12.551    -12.339    -12.132    -12.024    -11.837
 #    :          21         22         23         24         25         26         27         28
 occ. :        2.000      2.000      2.000      2.000      2.000      0.000      0.000      0.000
 eps  :       -11.675    -11.483    -11.431    -11.322    -11.224      1.539      2.358      3.055
 #    :          29         30         31         32         33         34         35         36
 occ. :        0.000      0.000      0.000      0.000      0.000      0.000      0.000      0.000
 eps  :         3.163      3.525      3.647      3.904      4.131      4.283      4.475      4.853
 

   #   Z            q   n(s)   n(p)   n(d)      C6AA      α(0)    relVol
   1   6 C     -0.102  1.037  3.065  0.000    22.646     6.807     0.551
   2   1 H      0.033  0.967  0.000  0.000     2.539     2.492     0.493
   3   1 H      0.032  0.968  0.000  0.000     2.548     2.496     0.494
   4   1 H      0.033  0.967  0.000  0.000     2.539     2.492     0.493
   5   6 C     -0.053  1.048  3.005  0.000    21.604     6.629     0.537
   6   1 H      0.028  0.972  0.000  0.000     2.609     2.525     0.500
   7   6 C     -0.059  1.052  3.007  0.000    21.683     6.634     0.537
   8   1 H      0.029  0.971  0.000  0.000     2.595     2.519     0.498
   9   1 H      0.029  0.971  0.000  0.000     2.599     2.521     0.499
  10   6 C     -0.059  1.051  3.007  0.000    21.680     6.634     0.537
  11   1 H      0.029  0.971  0.000  0.000     2.598     2.520     0.499
  12   1 H      0.030  0.970  0.000  0.000     2.579     2.511     0.497
  13   1 H      0.028  0.972  0.000  0.000     2.606     2.524     0.499
  14   6 C     -0.058  1.052  3.006  0.000    21.671     6.633     0.537
  15   1 H      0.028  0.972  0.000  0.000     2.607     2.525     0.500
  16   1 H      0.029  0.971  0.000  0.000     2.600     2.521     0.499
  17   6 C     -0.059  1.052  3.007  0.000    21.683     6.635     0.537
  18   1 H      0.029  0.971  0.000  0.000     2.592     2.517     0.498
  19   1 H      0.030  0.970  0.000  0.000     2.585     2.514     0.497
  20   6 C     -0.053  1.047  3.006  0.000    21.613     6.631     0.537
  21   1 H      0.030  0.970  0.000  0.000     2.576     2.510     0.497
  22   1 H      0.029  0.971  0.000  0.000     2.599     2.521     0.499
  23   6 C     -0.102  1.037  3.065  0.000    22.644     6.806     0.551
  24   1 H      0.033  0.967  0.000  0.000     2.546     2.495     0.494
  25   1 H      0.032  0.968  0.000  0.000     2.553     2.499     0.494
  26   1 H      0.032  0.968  0.000  0.000     2.553     2.498     0.494

 Mol. C6AA /au*bohr^6 :       4388.296813
 Mol. C8AA /au*bohr^6 :      90859.410946
 Mol. a(0) /au        :         98.609367

 
 Wiberg/Mayer (AO) data. WBOs > 0.1 written file <wbo>
 largest (>0.05) Wiberg bond orders for each atom
           total WBO             WBO to atom ...
     1  C   3.997    C    5 1.019    H    4 0.988    H    2 0.988    H    3 0.988
     2  H   0.999    C    1 0.988
     3  H   0.999    C    1 0.988
     4  H   0.999    C    1 0.988
     5  C   3.998    C    1 1.019    C    7 1.008    H   13 0.979    H    6 0.979
     6  H   0.999    C    5 0.979
     7  C   3.997    C    5 1.008    C   10 1.007    H    8 0.978    H    9 0.977
     8  H   0.999    C    7 0.978
     9  H   0.999    C    7 0.977
    10  C   3.998    C   14 1.008    C    7 1.007    H   11 0.977    H   12 0.976
    11  H   0.999    C   10 0.977
    12  H   0.999    C   10 0.976
    13  H   0.999    C    5 0.979
    14  C   3.997    C   10 1.008    C   17 1.006    H   16 0.977    H   15 0.977
    15  H   0.999    C   14 0.977
    16  H   0.999    C   14 0.977
    17  C   3.997    C   20 1.009    C   14 1.006    H   19 0.977    H   18 0.977
    18  H   0.999    C   17 0.977
    19  H   0.999    C   17 0.977
    20  C   3.998    C   23 1.019    C   17 1.009    H   22 0.978    H   21 0.977
    21  H   0.999    C   20 0.977
    22  H   0.999    C   20 0.978
    23  C   3.997    C   20 1.019    H   24 0.988    H   26 0.988    H   25 0.988
    24  H   0.999    C   23 0.988
    25  H   0.999    C   23 0.988
    26  H   0.999    C   23 0.988
 
molecular dipole:
                 x           y           z       tot (Debye)
 q only:        0.000       0.002      -0.000
   full:        0.001      -0.001       0.001       0.002
molecular quadrupole (traceless):
                xx          xy          yy          xz          yz          zz
 q only:       -0.278       0.078      -0.017       0.089       0.162       0.295
  q+dip:        1.516      -0.453       0.219      -0.263      -0.832      -1.735
   full:        0.638      -0.197       0.087      -0.098      -0.353      -0.725
 SCC converged in            3  cycles
 
SCC energy    :     -26.7190935
rep           :       0.3973709
ES            :       0.0048378
AES           :       0.0086793
AXC           :       0.0163651
disp          :      -0.0151876
XB            :       0.0000000
fix           :       0.0000000
total E       :     -26.3217738
atomizationE  :       6.2560561     3925.73
(atE without considerung molecular charge,
 total energy contains solvation terms)
H-L gap (eV)  :         12.7633
 
             =======================================
             |                                     |
             |    Approximate Normal Coordinate    |
             |   Rational Function Optimization    |
             |                                     |
             =======================================
Ref. for RF algo: F.Eckert, P.Pulay, H.-J.Werner
                  J.Comput.Chem. 18 (1997) 1473.
ANC idea implemented by S. Grimme in the 2000ers (unpublished)
restraining potential by S. Ehrlich.
dumping coords to <xtbopt.coord> and <xtbopt.log
 optlevel               1
 Maxcycle             200
 Maxmicro              20
 Econv         1.000000000000000E-006
 Gconv         8.000000000000000E-004
 Maxdispl       1.00000000000000     
 Hlow          1.000000000000000E-002
 S6             20.0000000000000     
 Nvar               72

generating ANC from read Hessian ...
 Shifting diagonal of input Hessian by   9.837364580492464E-003
 Lowest  eigenvalues of input Hessian
   -0.000000   -0.000000   -0.000000   -0.000000    0.000000    0.000000
    0.010000    0.010120    0.010370    0.010777    0.011104    0.012201
    0.012303    0.012525    0.015497    0.018149    0.023147    0.028570
 Highest eigenvalues
    0.783611    0.796483    0.806468    0.813116    0.827659    0.835848
 
cpu  time for ANC gen    0.01 s
wall time for ANC gen    0.01 s
................................................................................
.............................. CYCLE    1 ......................................
................................................................................
  q data taken from xtbrestart
  CAMM data taken from xtbrestart
   1    -26.7190935 -0.267191E+02  0.316E-08   12.76       0.0  T
   2    -26.7190935  0.177636E-13  0.186E-08   12.76  100000.0  T
   3    -26.7190935 -0.284217E-13  0.187E-09   12.76  100000.0  T
speedup  1.00
cpu  time for SCC    0.01 s
wall time for SCC    0.01 s
speedup  1.00
cpu  time for grad    0.01 s
wall time for grad    0.01 s
 E :    -26.32177376  G :  0.000383    pred/act E change:  0.000D+00 -0.391D-11
Maxdispl :   0.0029   ||displ|| :   0.0051   Lambda : -0.699D-06
Largest |displ|/coords:  0.0029 (   6)  0.0025 (   4)  0.0017 (   1)
ancopt converged in          1 cycles
total energy gain (kcal):      0.0000
================
 final structure:
================
    26
        -26.32177376
C          -2.72356061976135   -0.28972885374168   -0.06961051032693
H          -2.33302685098147   -1.30475187678763   -0.03997921332759
H          -2.33381738336928    0.20205872061549   -0.95800568038275
H          -3.80701038181118   -0.34362065330064   -0.15415138723393
C          -2.32349834321988    0.47319391723355    1.18736521622222
H          -2.70774777388662    1.49435093701687    1.12963672144096
C          -2.85690163942430   -0.19512133832140    2.45238094568300
H          -3.94672440664881   -0.25267759527526    2.39664660352925
H          -2.47585731002840   -1.21799550218479    2.50637497325797
C          -2.45633458110419    0.56140135677983    3.71664431887293
H          -1.36638590782370    0.60991914428967    3.77761295830073
H          -2.83137798038384    1.58423377979526    3.65062886514226
H          -1.23400370166838    0.53357061977150    1.24377827722695
C          -3.00148511619432   -0.10908227931908    4.97606220086125
H          -2.68657192616614   -1.15590255178019    4.97778565740898
H          -4.09376906859383   -0.09529080672188    4.94846490364080
C          -2.52089330577445    0.54533096375476    6.27156487995242
H          -2.83612136327505   -0.07657511329682    7.11359832577630
H          -1.42854645208928    0.57535439445353    6.27651118049126
C          -3.06376992374710    1.95750615766611    6.48084244586010
H          -2.69057729530455    2.61649180048540    5.69517552203042
H          -4.15405236311444    1.93797647635334    6.41072512061992
C          -2.65425242026012    2.51909848193193    7.83712845734444
H          -1.57005190006742    2.55112205651493    7.92486622091020
H          -3.03874082445790    3.52832807106989    7.96685904086590
H          -3.04335947084458    1.89788673299777    8.64162204583299
 
 Bond Distances (Angstroems)
 ---------------------------
C1-H2=1.0880         C1-H3=1.0877         C1-H4=1.0881         C1-C5=1.5238         H2-C1=1.0880         H3-C1=1.0877         
H4-C1=1.0881         C5-C1=1.5238         C5-H6=1.0926         C5-C7=1.5269         C5-H13=1.0926        H6-C5=1.0926         
C7-C5=1.5269         C7-H8=1.0928         C7-H9=1.0929         C7-C10=1.5268        H8-C7=1.0928         H9-C7=1.0929         
C10-C7=1.5268        C10-H11=1.0927       C10-H12=1.0914       C10-C14=1.5274       H11-C10=1.0927       H12-C10=1.0914       
H13-C5=1.0926        C14-C10=1.5274       C14-H15=1.0932       C14-H16=1.0927       C14-C17=1.5289       H15-C14=1.0932       
H16-C14=1.0927       C17-C14=1.5289       C17-H18=1.0932       C17-H19=1.0928       C17-C20=1.5273       H18-C17=1.0932       
H19-C17=1.0928       C20-C17=1.5273       C20-H21=1.0912       C20-H22=1.0927       C20-C23=1.5240       H21-C20=1.0912       
H22-C20=1.0927       C23-C20=1.5240       C23-H24=1.0882       C23-H25=1.0878       C23-H26=1.0884       H24-C23=1.0882       
H25-C23=1.0878       H26-C23=1.0884       
 C  H  Rav=1.0910 sigma=0.0022  Rmin=1.0877  Rmax=1.0932    18
 C  C  Rav=1.5265 sigma=0.0017  Rmin=1.5238  Rmax=1.5289     7
 
 selected bond angles (degree)
 --------------------
H3-C1-H2=108.39                H4-C1-H2=108.26                H4-C1-H3=108.41                C5-C1-H2=110.51                
C5-C1-H3=110.69                C5-C1-H4=110.51                H6-C5-C1=109.39                C7-C5-C1=111.87                
C7-C5-H6=109.27                H13-C5-C1=109.39               H13-C5-H6=107.56               H13-C5-C7=109.25               
H8-C7-C5=109.22                H9-C7-C5=109.20                H9-C7-H8=107.51                C10-C7-C5=112.18               
C10-C7-H8=109.27               C10-C7-H9=109.35               H11-C10-C7=109.26              H12-C10-C7=108.91              
H12-C10-H11=107.73             C14-C10-C7=111.82              C14-C10-H11=109.24             C14-C10-H12=109.79             
 
 selected dihedral angles (degree)
 ---------------------------------
H6-C5-C1-H2=178.89            H6-C5-C1-H3= 58.81            H6-C5-C1-H4=298.70            C7-C5-C1-H2=300.11            
C7-C5-C1-H3=180.02            C7-C5-C1-H4= 59.92            H13-C5-C1-H2= 61.31           H13-C5-C1-H3=301.22           
H13-C5-C1-H4=181.12           H8-C7-C5-C1=301.12            H8-C7-C5-H6= 62.41            H8-C7-C5-H13=179.84           
H9-C7-C5-C1= 58.43            H9-C7-C5-H6=179.72            H9-C7-C5-H13=297.15           C10-C7-C5-C1=179.82           
C10-C7-C5-H6=301.11           C10-C7-C5-H13= 58.54          H11-C10-C7-C5=300.69          H11-C10-C7-H8=179.42          
H11-C10-C7-H9= 61.99          H12-C10-C7-C5= 58.12          H12-C10-C7-H8=296.85          H12-C10-C7-H9=179.42          
C14-C10-C7-C5=179.64          C14-C10-C7-H8= 58.37          C14-C10-C7-H9=300.94          
 
             =======================================
             |                                     |
             |        S C C  calculation           |
             |                                     |
             =======================================
 #proc     :            2
 Ncao      :           50
 Nao       :           50
 Nel       :           50
 T(el)     :   300.0
 intcut    :    25.0
 scfconv   :  0.100E-05
   qconv   :  0.100E-03
 intneglect:  0.100E-07
 broydamp  :      0.400
 Nshell    :           34
 iter      E             dE          RMSdq      gap      omega  full diag
   1    -26.7190935 -0.267191E+02  0.274E-08   12.76       0.0  T
   2    -26.7190935 -0.106581E-13  0.163E-08   12.76  100000.0  T
   3    -26.7190935  0.177636E-13  0.530E-10   12.76  100000.0  T
speedup  1.00
cpu  time for SCC    0.01 s
wall time for SCC    0.01 s

          eigenvalues
 #    :          13         14         15         16         17         18         19         20
 occ. :        2.000      2.000      2.000      2.000      2.000      2.000      2.000      2.000
 eps  :       -13.224    -13.068    -12.864    -12.551    -12.339    -12.132    -12.024    -11.837
 #    :          21         22         23         24         25         26         27         28
 occ. :        2.000      2.000      2.000      2.000      2.000      0.000      0.000      0.000
 eps  :       -11.675    -11.483    -11.431    -11.322    -11.224      1.539      2.358      3.055
 #    :          29         30         31         32         33         34         35         36
 occ. :        0.000      0.000      0.000      0.000      0.000      0.000      0.000      0.000
 eps  :         3.163      3.525      3.647      3.904      4.131      4.283      4.475      4.853
 

   #   Z            q   n(s)   n(p)   n(d)      C6AA      α(0)    relVol
   1   6 C     -0.102  1.037  3.065  0.000    22.646     6.807     0.551
   2   1 H      0.033  0.967  0.000  0.000     2.539     2.492     0.493
   3   1 H      0.032  0.968  0.000  0.000     2.548     2.496     0.494
   4   1 H      0.033  0.967  0.000  0.000     2.539     2.492     0.493
   5   6 C     -0.053  1.048  3.005  0.000    21.604     6.629     0.537
   6   1 H      0.028  0.972  0.000  0.000     2.609     2.525     0.500
   7   6 C     -0.059  1.052  3.007  0.000    21.683     6.634     0.537
   8   1 H      0.029  0.971  0.000  0.000     2.595     2.519     0.498
   9   1 H      0.029  0.971  0.000  0.000     2.599     2.521     0.499
  10   6 C     -0.059  1.051  3.007  0.000    21.680     6.634     0.537
  11   1 H      0.029  0.971  0.000  0.000     2.598     2.520     0.499
  12   1 H      0.030  0.970  0.000  0.000     2.579     2.511     0.497
  13   1 H      0.028  0.972  0.000  0.000     2.606     2.524     0.499
  14   6 C     -0.058  1.052  3.006  0.000    21.671     6.633     0.537
  15   1 H      0.028  0.972  0.000  0.000     2.607     2.525     0.500
  16   1 H      0.029  0.971  0.000  0.000     2.600     2.521     0.499
  17   6 C     -0.059  1.052  3.007  0.000    21.683     6.635     0.537
  18   1 H      0.029  0.971  0.000  0.000     2.592     2.517     0.498
  19   1 H      0.030  0.970  0.000  0.000     2.585     2.514     0.497
  20   6 C     -0.053  1.047  3.006  0.000    21.613     6.631     0.537
  21   1 H      0.030  0.970  0.000  0.000     2.576     2.510     0.497
  22   1 H      0.029  0.971  0.000  0.000     2.599     2.521     0.499
  23   6 C     -0.102  1.037  3.065  0.000    22.644     6.806     0.551
  24   1 H      0.033  0.967  0.000  0.000     2.546     2.495     0.494
  25   1 H      0.032  0.968  0.000  0.000     2.553     2.499     0.494
  26   1 H      0.032  0.968  0.000  0.000     2.553     2.498     0.494

 Mol. C6AA /au*bohr^6 :       4388.296813
 Mol. C8AA /au*bohr^6 :      90859.410948
 Mol. a(0) /au        :         98.609367

 
 Wiberg/Mayer (AO) data. WBOs > 0.1 written file <wbo>
 largest (>0.05) Wiberg bond orders for each atom
           total WBO             WBO to atom ...
     1  C   3.997    C    5 1.019    H    4 0.988    H    2 0.988    H    3 0.988
     2  H   0.999    C    1 0.988
     3  H   0.999    C    1 0.988
     4  H   0.999    C    1 0.988
     5  C   3.998    C    1 1.019    C    7 1.008    H   13 0.979    H    6 0.979
     6  H   0.999    C    5 0.979
     7  C   3.997    C    5 1.008    C   10 1.007    H    8 0.978    H    9 0.977
     8  H   0.999    C    7 0.978
     9  H   0.999    C    7 0.977
    10  C   3.998    C   14 1.008    C    7 1.007    H   11 0.977    H   12 0.976
    11  H   0.999    C   10 0.977
    12  H   0.999    C   10 0.976
    13  H   0.999    C    5 0.979
    14  C   3.997    C   10 1.008    C   17 1.006    H   16 0.977    H   15 0.977
    15  H   0.999    C   14 0.977
    16  H   0.999    C   14 0.977
    17  C   3.997    C   20 1.009    C   14 1.006    H   19 0.977    H   18 0.977
    18  H   0.999    C   17 0.977
    19  H   0.999    C   17 0.977
    20  C   3.998    C   23 1.019    C   17 1.009    H   22 0.978    H   21 0.977
    21  H   0.999    C   20 0.977
    22  H   0.999    C   20 0.978
    23  C   3.997    C   20 1.019    H   24 0.988    H   26 0.988    H   25 0.988
    24  H   0.999    C   23 0.988
    25  H   0.999    C   23 0.988
    26  H   0.999    C   23 0.988
 
molecular dipole:
                 x           y           z       tot (Debye)
 q only:        0.000       0.002      -0.000
   full:        0.000      -0.001       0.001       0.002
molecular quadrupole (traceless):
                xx          xy          yy          xz          yz          zz
 q only:       -0.278       0.078      -0.017       0.089       0.162       0.295
  q+dip:        1.516      -0.453       0.219      -0.263      -0.832      -1.735
   full:        0.638      -0.197       0.087      -0.098      -0.353      -0.725
 SCC converged in            3  cycles
 
SCC energy    :     -26.7190935
rep           :       0.3973709
ES            :       0.0048378
AES           :       0.0086793
AXC           :       0.0163651
disp          :      -0.0151876
XB            :       0.0000000
fix           :       0.0000000
total E       :     -26.3217738
atomizationE  :       6.2560561     3925.73
(atE without considerung molecular charge,
 total energy contains solvation terms)
H-L gap (eV)  :         12.7633
 !!!!!!!!!!!!!!!!!!!!!!!!!!!!!!!!!!!
 ! Note: the input coordinates are !
 ! NOT overwritten. The optimized  !
 ! ones are on file <xtbopt.coord> !
 ! (or on <xtbopt.xyz> if it was a !
 ! xyz file)                       !
 !!!!!!!!!!!!!!!!!!!!!!!!!!!!!!!!!!!
 
Refinement of some symmetry elements was terminated before convergence was reached.
Some symmetry elements may remain unidentified.
Molecule has no symmetry elements
It seems to be the C1 point group
c1  symmetry found (for desy threshold:  0.10E+00) used in thermo
  q data taken from xtbrestart
  CAMM data taken from xtbrestart
 
             =======================================
             |                                     |
             |         Numerical Hessian           |
             |                                     |
             =======================================
step length          :   0.00500
SCC accuracy         :   0.30000
Hessian scale factor :   1.00000
frozen atoms in %    :   0.00000    0
RMS gradient         :   0.00038
estimated CPU  time      0.05 min
estimated wall time      0.05 min
 
 writing file <hessian>.
 
 projected vibrational frequencies (cm-1)
eig.   :       -0.00    -0.00     0.00     0.00     0.00     0.00
eig.   :       44.60    64.55    70.48   108.08   122.08   161.06
eig.   :      231.27   234.27   260.92   279.74   347.75   423.09
eig.   :      521.51   767.45   779.45   796.47   856.17   889.13
eig.   :      916.24   943.13   975.36  1003.50  1042.68  1076.27
eig.   :     1087.80  1099.74  1117.84  1130.43  1148.58  1181.50
eig.   :     1215.66  1241.76  1258.79  1267.67  1285.61  1287.70
eig.   :     1292.36  1312.33  1324.86  1367.80  1375.08  1379.63
eig.   :     1416.35  1416.88  1491.71  1493.01  1496.74  1498.41
eig.   :     1500.58  1503.54  1505.04  1505.96  1508.30  1508.58
eig.   :     2954.34  2955.59  2955.92  2964.59  2968.03  2972.19
eig.   :     2972.61  2976.19  2978.61  2981.23  2987.03  2993.16
eig.   :     3026.04  3028.65  3029.17  3031.14  3034.80  3036.29
 reduced masses (amu)
   1:  8.69   2:  9.04   3:  9.56   4:  9.90   5:  9.79   6: 10.15   7:  7.27   8:  5.93
   9:  8.37  10:  7.94  11:  6.70  12:  8.36  13:  2.95  14:  2.13  15:  6.50  16:  8.64
  17:  8.94  18:  9.13  19:  8.48  20:  1.97  21:  2.15  22:  2.37  23:  3.48  24:  4.29
  25:  5.21  26:  5.94  27:  2.76  28:  6.12  29:  3.00  30: 10.16  31:  8.77  32:  7.51
  33:  7.20  34:  8.00  35:  8.03  36:  6.93  37:  5.35  38:  4.10  39:  3.47  40:  2.97
  41:  2.12  42:  2.20  43:  2.44  44:  3.33  45:  3.72  46:  4.71  47:  5.13  48:  5.62
  49:  3.18  50:  3.16  51:  1.90  52:  1.91  53:  1.96  54:  1.87  55:  1.96  56:  1.80
  57:  1.53  58:  1.53  59:  1.65  60:  1.64  61:  1.89  62:  1.91  63:  1.93  64:  1.92
  65:  1.75  66:  1.82  67:  1.47  68:  1.49  69:  1.56  70:  1.84  71:  1.54  72:  1.61
  73:  1.95  74:  1.95  75:  1.87  76:  1.92  77:  1.34  78:  1.28
 IR intensities (amu)
   1:  0.24   2:  0.16   3:  0.11   4:  0.21   5:  0.22   6:  0.09   7:  0.05   8:  0.03
   9:  0.02  10:  0.02  11:  0.02  12:  0.03  13:  0.03  14:  0.00  15:  0.03  16:  0.04
  17:  0.01  18:  0.03  19:  0.02  20:  0.05  21:  0.03  22:  0.02  23:  0.03  24:  0.04
  25:  0.06  26:  0.03  27:  0.03  28:  0.06  29:  0.07  30:  0.06  31:  0.05  32:  0.06
  33:  0.08  34:  0.04  35:  0.02  36:  0.02  37:  0.04  38:  0.03  39:  0.02  40:  0.02
  41:  0.02  42:  0.02  43:  0.03  44:  0.05  45:  0.03  46:  0.07  47:  0.01  48:  0.01
  49:  0.03  50:  0.03  51:  0.04  52:  0.02  53:  0.03  54:  0.05  55:  0.05  56:  0.03
  57:  0.03  58:  0.03  59:  0.02  60:  0.02  61:  0.07  62:  0.13  63:  0.09  64:  0.06
  65:  0.17  66:  0.27  67:  0.10  68:  0.17  69:  0.17  70:  0.51  71:  0.31  72:  0.40
  73:  0.30  74:  0.24  75:  0.33  76:  0.29  77:  0.20  78:  0.17
 output can be read by thermo (or use thermo option).
 writing <g98.out> molden fake output.
 recommended (thermochemical) frequency scaling factor: 1.0
                    ==================
                    thermo calculation
                    ==================
Nvib :   72 Nimag : 0  symmetry :   c1  rot number :  1  scale factor : 1.00 sthr :  50.
omega= 44.60     Gvib=    -1.504     Grot=    -1.090     Gused=    -1.251
omega= 64.55     Gvib=    -1.286     Grot=    -0.981     Gused=    -1.205
omega= 70.48     Gvib=    -1.234     Grot=    -0.955     Gused=    -1.178
omega=108.08     Gvib=    -0.985     Grot=    -0.828     Gused=    -0.978
omega=122.08     Gvib=    -0.914     Grot=    -0.792     Gused=    -0.911
omega=161.06     Gvib=    -0.757     Grot=    -0.710     Gused=    -0.756
omega=231.27     Gvib=    -0.557     Grot=    -0.603     Gused=    -0.557
omega=234.27     Gvib=    -0.550     Grot=    -0.599     Gused=    -0.551
omega=260.92     Gvib=    -0.494     Grot=    -0.567     Gused=    -0.494
omega=279.74     Gvib=    -0.458     Grot=    -0.546     Gused=    -0.458
 
   temp. (K)  partition function   enthalpy   heat capacity  entropy
                                   cal/mol     cal/K/mol   cal/K/mol   J/K/mol
 298.15  VIB  0.538E+04             5157.844     32.676     33.027
         ROT  0.609E+06              888.752      2.981     29.449
         INT  0.327E+10             6046.596     35.657     62.476
         TR   0.118E+28             1481.254      4.968     40.096
         TOT                        7527.8501    40.6253   102.5725   429.1619
                     Eh         kcal/mol          kJ/mol 
ZPVE            0.243721         152.937         639.886    
H(0)-H(T)+PV    0.119964E-01     7.52785         31.4964    
H(T)            0.255717         160.465         671.383    
T*S             0.487355E-01     30.5820         127.955    
G(T)            0.206982         129.883         543.428    
    -26.11479214  <=== TOTAL FREE ENERGY in Eh incl. el.,ZPVE,RRHO,solv. parts
 
Eat (element increment corrected) /kcal :  2965.297
        -499.876  <=== HOF(298)/kcal, to be compared to exptl. data
 
 normal mode %tage of torsion character
   1:  0.00   2:  0.00   3:  0.00   4:  0.00   5:  0.00   6:  0.00   7:  0.49   8:  0.51
   9:  0.36  10:  0.57  11:  0.64  12:  0.50  13:  0.78  14:  0.85  15:  0.59  16:  0.24
  17:  0.18  18:  0.13  19:  0.08  20:  0.51  21:  0.49  22:  0.45  23:  0.51  24:  0.42
  25:  0.34  26:  0.25  27:  0.38  28:  0.12  29:  0.37  30:  0.13  31:  0.13  32:  0.16
  33:  0.15  34:  0.07  35:  0.17  36:  0.48  37:  0.39  38:  0.35  39:  0.25  40:  0.17
  41:  0.08  42:  0.17  43:  0.12  44:  0.08  45:  0.11  46:  0.08  47:  0.07  48:  0.06
  49:  0.45  50:  0.00  51:  0.64  52:  0.60  53:  0.66  54:  0.55  55:  0.58  56:  0.60
  57:  0.30  58:  0.93  59:  0.24  60:  0.83  61:  0.33  62:  0.29  63:  0.25  64:  0.14
  65:  0.06  66:  0.02  67:  0.01  68:  0.01  69:  0.02  70:  0.01  71:  0.02  72:  0.03
  73:  0.05  74:  0.12  75:  0.04  76:  0.09  77:  0.00  78:  0.03
 recommended # of modes for mode following           4
 
speedup  0.99
cpu  time for all    2.38 s
wall time for all    2.40 s
