 Entering Gaussian System
 *********************************************
 Gaussian 98:
 frequency output generated by the xtb code
 *********************************************
                         Standard orientation:
 --------------------------------------------------------------------
  Center     Atomic     Atomic              Coordinates (Angstroms)
  Number     Number      Type              X           Y           Z
 --------------------------------------------------------------------
    1          6             0       -2.877802   -0.213847   -0.012277
    2         17             0       -4.646623   -0.202312    0.006979
    3         17             0       -2.277316    0.635488   -1.443935
    4         17             0       -2.277341   -1.877710    0.007188
    5          1             0       -2.513588    0.300873    0.878716
 --------------------------------------------------------------------
     1 basis functions        1 primitive gaussians
     1 alpha electrons        1 beta electrons
 
 Harmonic frequencies (cm**-1), IR intensities (KM/Mole),
 Raman scattering activities (A**4/amu), Raman depolarization ratios,
 reduced masses (AMU), force constants (mDyne/A) and normal coordinates:
                      1                      2                      3
                        a                      a                      a 
 Frequencies --   227.1524               227.2568               333.9413
 Red. masses --    34.1132                34.1108                31.0518
 Frc consts  --     0.0000                 0.0000                 0.0000
 IR Inten    --     0.4964                 0.4876                 0.3026
 Raman Activ --     0.0000                 0.0000                 0.0000
 Depolar     --     0.0000                 0.0000                 0.0000
 Atom AN      X      Y      Z        X      Y      Z        X      Y      Z
   1   6     0.20  -0.05  -0.06    -0.01  -0.18   0.11    -0.14  -0.19  -0.33
   2  17     0.47  -0.07  -0.20    -0.03   0.53  -0.29    -0.46   0.13   0.22
   3  17    -0.33   0.47  -0.12    -0.45  -0.16   0.24     0.27   0.38  -0.23
   4  17    -0.27  -0.37   0.35     0.48  -0.25  -0.02     0.27  -0.39   0.22
   5   1     0.08  -0.02  -0.02    -0.00  -0.07   0.04    -0.04  -0.06  -0.10
                      4                      5                      6
                        a                      a                      a 
 Frequencies --   640.5604               641.4061               641.6364
 Red. masses --    16.1712                16.2017                18.0339
 Frc consts  --     0.0000                 0.0000                 0.0000
 IR Inten    --     0.2373                 0.2379                 0.2102
 Raman Activ --     0.0000                 0.0000                 0.0000
 Depolar     --     0.0000                 0.0000                 0.0000
 Atom AN      X      Y      Z        X      Y      Z        X      Y      Z
   1   6     0.28   0.53  -0.64     0.65  -0.57  -0.18     0.52   0.38   0.51
   2  17    -0.08  -0.03   0.02    -0.22   0.02  -0.01    -0.40  -0.04  -0.06
   3  17    -0.12  -0.17   0.35    -0.05  -0.01   0.08     0.03   0.06  -0.20
   4  17     0.02  -0.13   0.02    -0.12   0.34   0.04     0.04  -0.26  -0.05
   5   1     0.05   0.10  -0.14     0.12  -0.12  -0.05     0.12   0.10   0.15
                      7                      8                      9
                        a                      a                      a 
 Frequencies --  1119.6324              1119.7963              2931.0088
 Red. masses --     1.9568                 1.9575                 1.7913
 Frc consts  --     0.0000                 0.0000                 0.0000
 IR Inten    --     0.3016                 0.3080                 0.0985
 Raman Activ --     0.0000                 0.0000                 0.0000
 Depolar     --     0.0000                 0.0000                 0.0000
 Atom AN      X      Y      Z        X      Y      Z        X      Y      Z
   1   6    -0.17  -0.09   0.12     0.13  -0.18   0.05    -0.09  -0.13  -0.22
   2  17    -0.05  -0.02  -0.05     0.04   0.03   0.03    -0.00  -0.00  -0.00
   3  17     0.01   0.01   0.08    -0.01   0.01   0.03     0.00   0.00  -0.00
   4  17     0.01  -0.01  -0.01    -0.01  -0.07  -0.05     0.00  -0.00  -0.00
   5   1     0.72   0.39  -0.52    -0.56   0.76  -0.21     0.32   0.45   0.79
