 Entering Gaussian System
 *********************************************
 Gaussian 98:
 frequency output generated by the xtb code
 *********************************************
                         Standard orientation:
 --------------------------------------------------------------------
  Center     Atomic     Atomic              Coordinates (Angstroms)
  Number     Number      Type              X           Y           Z
 --------------------------------------------------------------------
    1          6             0       -2.877800   -0.213862   -0.012287
    2         17             0       -4.646622   -0.202336    0.006962
    3         17             0       -2.277315    0.635479   -1.443942
    4         17             0       -2.277331   -1.877721    0.007177
    5          1             0       -2.513592    0.300858    0.878707
 --------------------------------------------------------------------
     1 basis functions        1 primitive gaussians
     1 alpha electrons        1 beta electrons
 
 Harmonic frequencies (cm**-1), IR intensities (KM/Mole),
 Raman scattering activities (A**4/amu), Raman depolarization ratios,
 reduced masses (AMU), force constants (mDyne/A) and normal coordinates:
                      1                      2                      3
                        a                      a                      a 
 Frequencies --   227.1524               227.2568               333.9413
 Red. masses --    99.0000                99.0000                99.0000
 Frc consts  --    99.0000                99.0000                99.0000
 IR Inten    --    99.0000                99.0000                99.0000
 Raman Activ --     0.0000                 0.0000                 0.0000
 Depolar     --     0.0000                 0.0000                 0.0000
 Atom AN      X      Y      Z        X      Y      Z        X      Y      Z
   1   6     0.20  -0.05  -0.06    -0.01  -0.18   0.11    -0.14  -0.19  -0.33
   2  17     0.47  -0.07  -0.20    -0.03   0.53  -0.29    -0.46   0.13   0.22
   3  17    -0.33   0.47  -0.12    -0.45  -0.16   0.24     0.27   0.38  -0.23
   4  17    -0.27  -0.37   0.35     0.48  -0.25  -0.02     0.27  -0.39   0.22
   5   1     0.08  -0.02  -0.02    -0.00  -0.07   0.04    -0.04  -0.06  -0.10
                      4                      5                      6
                        a                      a                      a 
 Frequencies --   641.6364               641.4061               640.5604
 Red. masses --    99.0000                99.0000                99.0000
 Frc consts  --    99.0000                99.0000                99.0000
 IR Inten    --    99.0000                99.0000                99.0000
 Raman Activ --     0.0000                 0.0000                 0.0000
 Depolar     --     0.0000                 0.0000                 0.0000
 Atom AN      X      Y      Z        X      Y      Z        X      Y      Z
   1   6     0.52   0.38   0.51     0.65  -0.57  -0.18     0.28   0.53  -0.64
   2  17    -0.40  -0.04  -0.06    -0.22   0.02  -0.01    -0.08  -0.03   0.02
   3  17     0.03   0.06  -0.20    -0.05  -0.01   0.08    -0.12  -0.17   0.35
   4  17     0.04  -0.26  -0.05    -0.12   0.34   0.04     0.02  -0.13   0.02
   5   1     0.12   0.10   0.15     0.12  -0.12  -0.05     0.05   0.10  -0.14
                      7                      8                      9
                        a                      a                      a 
 Frequencies --  1119.7963              1119.6324              2931.0088
 Red. masses --    99.0000                99.0000                99.0000
 Frc consts  --    99.0000                99.0000                99.0000
 IR Inten    --    99.0000                99.0000                99.0000
 Raman Activ --     0.0000                 0.0000                 0.0000
 Depolar     --     0.0000                 0.0000                 0.0000
 Atom AN      X      Y      Z        X      Y      Z        X      Y      Z
   1   6     0.13  -0.18   0.05    -0.17  -0.09   0.12    -0.09  -0.13  -0.22
   2  17     0.04   0.03   0.03    -0.05  -0.02  -0.05    -0.00  -0.00  -0.00
   3  17    -0.01   0.01   0.03     0.01   0.01   0.08     0.00   0.00  -0.00
   4  17    -0.01  -0.07  -0.05     0.01  -0.01  -0.01     0.00  -0.00  -0.00
   5   1    -0.56   0.76  -0.21     0.72   0.39  -0.52     0.32   0.45   0.79
