 Entering Gaussian System
 *********************************************
 Gaussian 98:
 frequency output generated by the xtb code
 *********************************************
                         Standard orientation:
 --------------------------------------------------------------------
  Center     Atomic     Atomic              Coordinates (Angstroms)
  Number     Number      Type              X           Y           Z
 --------------------------------------------------------------------
    1          6             0       -3.650492    0.216299    0.017092
    2          1             0       -3.297402   -0.811114    0.017892
    3          1             0       -3.295063    0.718792   -0.878077
    4          1             0       -4.736844    0.206895    0.017808
    5          6             0       -3.142319    0.934958    1.257028
    6          1             0       -2.042187    0.947320    1.257003
    7          1             0       -3.497107    1.976385    1.256841
    8          8             0       -3.624142    0.253924    2.397151
    9          1             0       -3.309454    0.698947    3.190029
 --------------------------------------------------------------------
     1 basis functions        1 primitive gaussians
     1 alpha electrons        1 beta electrons
 
 Harmonic frequencies (cm**-1), IR intensities (KM/Mole),
 Raman scattering activities (A**4/amu), Raman depolarization ratios,
 reduced masses (AMU), force constants (mDyne/A) and normal coordinates:
                      1                      2                      3
                        a                      a                      a 
 Frequencies --   202.7570               293.7153               394.3193
 Red. masses --     2.6692                 2.0257                 9.9866
 Frc consts  --     0.0000                 0.0000                 0.0000
 IR Inten    --     0.2965                 0.4604                 0.2824
 Raman Activ --     0.0000                 0.0000                 0.0000
 Depolar     --     0.0000                 0.0000                 0.0000
 Atom AN      X      Y      Z        X      Y      Z        X      Y      Z
   1   6    -0.01   0.01  -0.00     0.08  -0.06   0.00    -0.05  -0.07   0.43
   2   1    -0.38  -0.13   0.32     0.01  -0.02   0.07    -0.02  -0.02   0.29
   3   1     0.45  -0.32   0.00     0.09  -0.06   0.00    -0.14  -0.20  -0.02
   4   1    -0.01   0.40  -0.32     0.02   0.00  -0.07    -0.02  -0.03   0.29
   5   6    -0.18   0.13  -0.00    -0.11   0.08  -0.00     0.24   0.33   0.02
   6   1    -0.05   0.14  -0.03    -0.04   0.04   0.01     0.07   0.09   0.03
   7   1    -0.15   0.00   0.03    -0.05   0.02  -0.01     0.06   0.09   0.03
   8   8     0.22  -0.16   0.00    -0.18   0.13   0.00    -0.11  -0.16  -0.54
   9   1    -0.07   0.05  -0.00     0.77  -0.55   0.00    -0.13  -0.18  -0.02
                      4                      5                      6
                        a                      a                      a 
 Frequencies --   837.5330               930.4044              1040.5744
 Red. masses --     1.9664                 8.0330                 6.7567
 Frc consts  --     0.0000                 0.0000                 0.0000
 IR Inten    --     0.1040                 0.6174                 0.3339
 Raman Activ --     0.0000                 0.0000                 0.0000
 Depolar     --     0.0000                 0.0000                 0.0000
 Atom AN      X      Y      Z        X      Y      Z        X      Y      Z
   1   6     0.11  -0.08  -0.00     0.02   0.03  -0.45    -0.25  -0.36  -0.23
   2   1    -0.31  -0.13  -0.32    -0.04  -0.01   0.17    -0.04  -0.08  -0.29
   3   1    -0.13   0.09  -0.00    -0.24  -0.34  -0.41     0.08   0.11   0.10
   4   1     0.02   0.33   0.32     0.00  -0.04   0.17    -0.07  -0.07  -0.29
   5   6     0.20  -0.14  -0.00     0.20   0.28  -0.10     0.21   0.30   0.34
   6   1     0.04   0.44   0.21     0.04   0.05   0.11     0.06   0.08   0.01
   7   1    -0.40  -0.18  -0.21     0.04   0.06   0.11     0.06   0.08   0.01
   8   8    -0.08   0.05   0.00    -0.13  -0.19   0.42     0.08   0.11  -0.05
   9   1     0.02  -0.01   0.00    -0.03  -0.04   0.09    -0.23  -0.33   0.29
                      7                      8                      9
                        a                      a                      a 
 Frequencies --  1128.0972              1152.4790              1240.0851
 Red. masses --     9.6396                 5.1012                 3.9691
 Frc consts  --     0.0000                 0.0000                 0.0000
 IR Inten    --     0.9705                 0.3772                 0.5941
 Raman Activ --     0.0000                 0.0000                 0.0000
 Depolar     --     0.0000                 0.0000                 0.0000
 Atom AN      X      Y      Z        X      Y      Z        X      Y      Z
   1   6    -0.01  -0.01   0.27     0.25  -0.18   0.00    -0.15  -0.22   0.02
   2   1     0.05   0.02  -0.09    -0.19  -0.13  -0.24     0.01  -0.04  -0.17
   3   1     0.13   0.19   0.22    -0.12   0.08   0.00     0.07   0.10   0.13
   4   1     0.00   0.05  -0.09     0.05   0.22   0.24    -0.04  -0.01  -0.17
   5   6     0.17   0.24  -0.58    -0.40   0.28  -0.00     0.19   0.27  -0.00
   6   1     0.03   0.02  -0.25    -0.09  -0.37   0.23     0.05   0.07   0.27
   7   1     0.01   0.03  -0.25     0.32   0.21  -0.23     0.05   0.07   0.27
   8   8    -0.17  -0.24   0.35     0.14  -0.10   0.00    -0.15  -0.21   0.01
   9   1    -0.09  -0.12   0.14     0.01  -0.01   0.00     0.33   0.46  -0.43
                     10                     11                     12
                        a                      a                      a 
 Frequencies --  1265.2905              1365.7578              1404.8746
 Red. masses --     2.1256                 3.8018                 3.6644
 Frc consts  --     0.0000                 0.0000                 0.0000
 IR Inten    --     0.0584                 0.2350                 0.2018
 Raman Activ --     0.0000                 0.0000                 0.0000
 Depolar     --     0.0000                 0.0000                 0.0000
 Atom AN      X      Y      Z        X      Y      Z        X      Y      Z
   1   6     0.23  -0.16   0.00    -0.08  -0.11  -0.08     0.11   0.16   0.38
   2   1    -0.14  -0.11  -0.17     0.12   0.03   0.18    -0.15  -0.04  -0.42
   3   1    -0.07   0.05  -0.00     0.14   0.19   0.18    -0.23  -0.33  -0.24
   4   1     0.05   0.17   0.17    -0.01   0.12   0.18     0.01  -0.15  -0.42
   5   6    -0.07   0.05   0.00    -0.07  -0.10  -0.41    -0.04  -0.05  -0.21
   6   1    -0.01  -0.00  -0.62    -0.02   0.01   0.50    -0.01  -0.05   0.23
   7   1    -0.00   0.01   0.62     0.01  -0.01   0.50    -0.04  -0.03   0.23
   8   8    -0.09   0.06  -0.00     0.11   0.15  -0.01     0.05   0.08  -0.01
   9   1    -0.02   0.01   0.00    -0.13  -0.18   0.18    -0.06  -0.09   0.09
                     13                     14                     15
                        a                      a                      a 
 Frequencies --  1474.4782              1493.7976              1495.7631
 Red. masses --     1.5280                 1.7128                 1.6914
 Frc consts  --     0.0000                 0.0000                 0.0000
 IR Inten    --     0.0165                 0.1315                 0.0480
 Raman Activ --     0.0000                 0.0000                 0.0000
 Depolar     --     0.0000                 0.0000                 0.0000
 Atom AN      X      Y      Z        X      Y      Z        X      Y      Z
   1   6     0.17  -0.12  -0.00     0.06   0.08  -0.02     0.10   0.14  -0.09
   2   1    -0.14  -0.06   0.44    -0.29  -0.10   0.02    -0.54  -0.18   0.11
   3   1    -0.59   0.42  -0.00     0.05   0.07   0.06     0.13   0.19   0.14
   4   1     0.01   0.16  -0.44     0.01  -0.31   0.02     0.01  -0.57   0.11
   5   6     0.04  -0.03   0.00    -0.13  -0.18  -0.05     0.09   0.13  -0.03
   6   1     0.01   0.02   0.02    -0.00   0.61  -0.00     0.01  -0.31   0.04
   7   1    -0.01  -0.02  -0.02     0.57   0.20  -0.00    -0.29  -0.10   0.04
   8   8    -0.00   0.00  -0.00    -0.02  -0.03   0.03     0.01   0.01  -0.01
   9   1     0.00  -0.00  -0.00    -0.00  -0.00   0.00     0.00   0.00  -0.00
                     16                     17                     18
                        a                      a                      a 
 Frequencies --  2852.8452              2885.9305              3046.1916
 Red. masses --     1.9791                 1.4231                 1.5602
 Frc consts  --     0.0000                 0.0000                 0.0000
 IR Inten    --     0.4117                 0.3365                 0.1745
 Raman Activ --     0.0000                 0.0000                 0.0000
 Depolar     --     0.0000                 0.0000                 0.0000
 Atom AN      X      Y      Z        X      Y      Z        X      Y      Z
   1   6    -0.00   0.00  -0.00    -0.00  -0.00   0.01     0.05   0.08  -0.20
   2   1     0.01  -0.03  -0.00    -0.01   0.02   0.00    -0.04   0.16  -0.03
   3   1    -0.00   0.00   0.00     0.01   0.01  -0.02    -0.32  -0.45   0.77
   4   1     0.03   0.00   0.00     0.02  -0.00   0.00     0.17   0.01  -0.03
   5   6     0.24  -0.17   0.00     0.11   0.16   0.01     0.00   0.00  -0.01
   6   1    -0.67  -0.03  -0.01    -0.69   0.04   0.00    -0.01  -0.00   0.00
   7   1    -0.20   0.64   0.01     0.26  -0.64   0.00     0.00  -0.01   0.00
   8   8     0.01  -0.00   0.00     0.01   0.01  -0.02    -0.00  -0.00   0.00
   9   1    -0.00   0.00   0.00     0.00   0.00  -0.00    -0.00  -0.00  -0.00
                     19                     20                     21
                        a                      a                      a 
 Frequencies --  3051.0914              3054.9631              3568.3427
 Red. masses --     1.9584                 1.6459                 1.8745
 Frc consts  --     0.0000                 0.0000                 0.0000
 IR Inten    --     0.1945                 0.1753                 0.1409
 Raman Activ --     0.0000                 0.0000                 0.0000
 Depolar     --     0.0000                 0.0000                 0.0000
 Atom AN      X      Y      Z        X      Y      Z        X      Y      Z
   1   6     0.24  -0.17  -0.00    -0.14  -0.19   0.05     0.00   0.00  -0.00
   2   1    -0.20   0.65  -0.01    -0.25   0.62   0.00    -0.00   0.01   0.00
   3   1     0.03  -0.02   0.00     0.06   0.08  -0.17    -0.00  -0.00  -0.00
   4   1    -0.67  -0.02   0.01     0.67  -0.02   0.00     0.01   0.00   0.00
   5   6     0.02  -0.01  -0.00    -0.01  -0.01  -0.00    -0.00  -0.00  -0.00
   6   1    -0.03   0.00   0.00     0.02  -0.00  -0.00     0.00   0.00   0.00
   7   1    -0.01   0.03  -0.00    -0.01   0.02  -0.00     0.00   0.00   0.00
   8   8    -0.00   0.00   0.00     0.00   0.00   0.00    -0.08  -0.11  -0.20
   9   1     0.00  -0.00  -0.00    -0.00  -0.00  -0.01     0.32   0.45   0.80
