 Entering Gaussian System
 *********************************************
 Gaussian 98:
 frequency output generated by the xtb code
 *********************************************
                         Standard orientation:
 --------------------------------------------------------------------
  Center     Atomic     Atomic              Coordinates (Angstroms)
  Number     Number      Type              X           Y           Z
 --------------------------------------------------------------------
    1          6             0       -3.650483    0.216310    0.017125
    2          1             0       -3.297437   -0.811105    0.017809
    3          1             0       -3.295117    0.718729   -0.878049
    4          1             0       -4.736824    0.206854    0.017734
    5          6             0       -3.142351    0.934911    1.256998
    6          1             0       -2.042220    0.947416    1.257092
    7          1             0       -3.496995    1.976388    1.256927
    8          8             0       -3.624182    0.253875    2.397180
    9          1             0       -3.309403    0.699027    3.189950
 --------------------------------------------------------------------
     1 basis functions        1 primitive gaussians
     1 alpha electrons        1 beta electrons
 
 Harmonic frequencies (cm**-1), IR intensities (KM/Mole),
 Raman scattering activities (A**4/amu), Raman depolarization ratios,
 reduced masses (AMU), force constants (mDyne/A) and normal coordinates:
                      1                      2                      3
                        a                      a                      a 
 Frequencies --   202.4685               293.8487               394.2978
 Red. masses --     2.6653                 2.0288                 9.9860
 Frc consts  --     0.0000                 0.0000                 0.0000
 IR Inten    --     0.2952                 0.4611                 0.2825
 Raman Activ --     0.0000                 0.0000                 0.0000
 Depolar     --     0.0000                 0.0000                 0.0000
 Atom AN      X      Y      Z        X      Y      Z        X      Y      Z
   1   6    -0.01   0.01  -0.00     0.08  -0.06   0.00     0.05   0.07  -0.43
   2   1    -0.38  -0.13   0.32     0.01  -0.02   0.07     0.02   0.02  -0.29
   3   1     0.45  -0.32   0.00     0.09  -0.06   0.00     0.14   0.20   0.02
   4   1    -0.01   0.40  -0.32     0.02  -0.00  -0.07     0.02   0.03  -0.29
   5   6    -0.18   0.13  -0.00    -0.11   0.08  -0.00    -0.24  -0.33  -0.02
   6   1    -0.05   0.14  -0.03    -0.04   0.04   0.01    -0.07  -0.09  -0.03
   7   1    -0.15   0.00   0.03    -0.05   0.02  -0.01    -0.06  -0.09  -0.03
   8   8     0.22  -0.16   0.00    -0.18   0.13   0.00     0.11   0.16   0.54
   9   1    -0.07   0.05  -0.00     0.77  -0.55   0.00     0.13   0.18   0.02
                      4                      5                      6
                        a                      a                      a 
 Frequencies --   837.4393               930.3435              1040.6746
 Red. masses --     1.9666                 8.0331                 6.7548
 Frc consts  --     0.0000                 0.0000                 0.0000
 IR Inten    --     0.1040                 0.6179                 0.3329
 Raman Activ --     0.0000                 0.0000                 0.0000
 Depolar     --     0.0000                 0.0000                 0.0000
 Atom AN      X      Y      Z        X      Y      Z        X      Y      Z
   1   6     0.11  -0.08  -0.00     0.02   0.03  -0.45    -0.25  -0.36  -0.23
   2   1    -0.31  -0.13  -0.32    -0.04  -0.01   0.17    -0.04  -0.08  -0.29
   3   1    -0.13   0.09  -0.00    -0.24  -0.34  -0.41     0.08   0.11   0.10
   4   1     0.02   0.33   0.32     0.00  -0.04   0.17    -0.07  -0.07  -0.29
   5   6     0.20  -0.14  -0.00     0.20   0.28  -0.10     0.21   0.30   0.34
   6   1     0.04   0.44   0.21     0.04   0.05   0.11     0.06   0.08   0.01
   7   1    -0.40  -0.18  -0.21     0.04   0.06   0.11     0.06   0.08   0.01
   8   8    -0.08   0.05   0.00    -0.13  -0.19   0.42     0.08   0.11  -0.05
   9   1     0.02  -0.01   0.00    -0.03  -0.04   0.09    -0.23  -0.33   0.29
                      7                      8                      9
                        a                      a                      a 
 Frequencies --  1128.0507              1152.4103              1240.1144
 Red. masses --     9.6430                 5.1023                 3.9655
 Frc consts  --     0.0000                 0.0000                 0.0000
 IR Inten    --     0.9709                 0.3772                 0.5936
 Raman Activ --     0.0000                 0.0000                 0.0000
 Depolar     --     0.0000                 0.0000                 0.0000
 Atom AN      X      Y      Z        X      Y      Z        X      Y      Z
   1   6     0.01   0.01  -0.27     0.25  -0.18   0.00    -0.15  -0.22   0.02
   2   1    -0.05  -0.02   0.09    -0.19  -0.13  -0.24     0.01  -0.04  -0.17
   3   1    -0.13  -0.19  -0.22    -0.12   0.08   0.00     0.07   0.10   0.13
   4   1    -0.00  -0.05   0.09     0.05   0.22   0.24    -0.04  -0.01  -0.17
   5   6    -0.17  -0.24   0.58    -0.40   0.28  -0.00     0.19   0.27  -0.00
   6   1    -0.03  -0.02   0.25    -0.09  -0.37   0.23     0.05   0.07   0.27
   7   1    -0.01  -0.03   0.25     0.32   0.21  -0.23     0.05   0.07   0.27
   8   8     0.17   0.24  -0.35     0.14  -0.10   0.00    -0.15  -0.21   0.01
   9   1     0.09   0.12  -0.14     0.01  -0.01   0.00     0.33   0.46  -0.43
                     10                     11                     12
                        a                      a                      a 
 Frequencies --  1265.2599              1365.7833              1404.9274
 Red. masses --     2.1255                 3.8021                 3.6659
 Frc consts  --     0.0000                 0.0000                 0.0000
 IR Inten    --     0.0584                 0.2351                 0.2019
 Raman Activ --     0.0000                 0.0000                 0.0000
 Depolar     --     0.0000                 0.0000                 0.0000
 Atom AN      X      Y      Z        X      Y      Z        X      Y      Z
   1   6     0.23  -0.16   0.00    -0.08  -0.11  -0.08     0.11   0.16   0.38
   2   1    -0.14  -0.11  -0.17     0.12   0.03   0.18    -0.15  -0.04  -0.42
   3   1    -0.07   0.05  -0.00     0.14   0.19   0.18    -0.23  -0.33  -0.24
   4   1     0.05   0.17   0.17    -0.01   0.12   0.18     0.01  -0.15  -0.42
   5   6    -0.07   0.05   0.00    -0.07  -0.10  -0.41    -0.04  -0.05  -0.21
   6   1    -0.01  -0.00  -0.62    -0.02   0.01   0.50    -0.01  -0.05   0.23
   7   1    -0.00   0.01   0.62     0.01  -0.01   0.50    -0.04  -0.03   0.23
   8   8    -0.09   0.06  -0.00     0.11   0.15  -0.01     0.05   0.08  -0.01
   9   1    -0.02   0.01   0.00    -0.13  -0.18   0.18    -0.06  -0.09   0.09
                     13                     14                     15
                        a                      a                      a 
 Frequencies --  1474.4741              1493.9038              1495.8088
 Red. masses --     1.5278                 1.7032                 1.7017
 Frc consts  --     0.0000                 0.0000                 0.0000
 IR Inten    --     0.0165                 0.1303                 0.0512
 Raman Activ --     0.0000                 0.0000                 0.0000
 Depolar     --     0.0000                 0.0000                 0.0000
 Atom AN      X      Y      Z        X      Y      Z        X      Y      Z
   1   6     0.17  -0.12  -0.00     0.06   0.08  -0.02     0.10   0.14  -0.09
   2   1    -0.14  -0.06   0.44    -0.31  -0.10   0.03    -0.53  -0.17   0.11
   3   1    -0.59   0.42  -0.00     0.05   0.08   0.06     0.13   0.18   0.14
   4   1     0.01   0.16  -0.44     0.01  -0.33   0.03     0.01  -0.56   0.11
   5   6     0.04  -0.03   0.00    -0.13  -0.18  -0.05     0.09   0.13  -0.03
   6   1     0.01   0.02   0.02    -0.00   0.60  -0.00     0.01  -0.32   0.04
   7   1    -0.01  -0.02  -0.02     0.56   0.20  -0.00    -0.31  -0.10   0.04
   8   8    -0.00   0.00  -0.00    -0.02  -0.03   0.03     0.01   0.01  -0.01
   9   1     0.00  -0.00  -0.00    -0.00  -0.00   0.00     0.00   0.00  -0.00
                     16                     17                     18
                        a                      a                      a 
 Frequencies --  2852.7895              2885.9924              3046.6915
 Red. masses --     1.9789                 1.4232                 1.5555
 Frc consts  --     0.0000                 0.0000                 0.0000
 IR Inten    --     0.4116                 0.3366                 0.1739
 Raman Activ --     0.0000                 0.0000                 0.0000
 Depolar     --     0.0000                 0.0000                 0.0000
 Atom AN      X      Y      Z        X      Y      Z        X      Y      Z
   1   6    -0.00   0.00  -0.00    -0.00  -0.00   0.01     0.05   0.08  -0.20
   2   1     0.01  -0.03  -0.00    -0.01   0.02   0.00    -0.04   0.16  -0.03
   3   1    -0.00   0.00   0.00     0.01   0.01  -0.02    -0.31  -0.45   0.77
   4   1     0.03   0.00   0.00     0.02  -0.00   0.00     0.17   0.01  -0.03
   5   6     0.24  -0.17   0.00     0.11   0.16   0.01     0.00   0.00  -0.01
   6   1    -0.67  -0.03  -0.01    -0.69   0.04   0.00    -0.01  -0.00   0.00
   7   1    -0.20   0.64   0.01     0.26  -0.64   0.00     0.00  -0.01   0.00
   8   8     0.01  -0.00   0.00     0.01   0.01  -0.02    -0.00  -0.00   0.00
   9   1    -0.00   0.00   0.00     0.00   0.00  -0.00    -0.00  -0.00  -0.00
                     19                     20                     21
                        a                      a                      a 
 Frequencies --  3051.1970              3055.1106              3568.3710
 Red. masses --     1.9583                 1.6506                 1.8746
 Frc consts  --     0.0000                 0.0000                 0.0000
 IR Inten    --     0.1944                 0.1759                 0.1409
 Raman Activ --     0.0000                 0.0000                 0.0000
 Depolar     --     0.0000                 0.0000                 0.0000
 Atom AN      X      Y      Z        X      Y      Z        X      Y      Z
   1   6     0.24  -0.17  -0.00    -0.14  -0.19   0.05     0.00   0.00  -0.00
   2   1    -0.20   0.65  -0.01    -0.25   0.62   0.00    -0.00   0.01   0.00
   3   1     0.03  -0.02   0.00     0.06   0.08  -0.18    -0.00  -0.00  -0.00
   4   1    -0.67  -0.02   0.01     0.67  -0.02   0.00     0.01   0.00   0.00
   5   6     0.02  -0.01  -0.00    -0.01  -0.01  -0.00    -0.00  -0.00  -0.00
   6   1    -0.03   0.00   0.00     0.02  -0.00  -0.00     0.00   0.00   0.00
   7   1    -0.01   0.03  -0.00    -0.01   0.02  -0.00     0.00   0.00   0.00
   8   8    -0.00   0.00   0.00     0.00   0.00   0.00    -0.08  -0.11  -0.20
   9   1     0.00  -0.00  -0.00    -0.00  -0.00  -0.01     0.32   0.45   0.80
