 Entering Gaussian System
 *********************************************
 Gaussian 98:
 frequency output generated by the xtb code
 *********************************************
                         Standard orientation:
 --------------------------------------------------------------------
  Center     Atomic     Atomic              Coordinates (Angstroms)
  Number     Number      Type              X           Y           Z
 --------------------------------------------------------------------
    1          6             0       -7.976086   -1.888141   -0.011929
    2          6             0       -6.450361   -1.900190    0.009055
    3          6             0       -5.905194   -0.475124   -0.010897
    4          6             0       -6.448882    0.320540    1.172180
    5          6             0       -7.974552    0.332907    1.150490
    6          6             0       -8.519614   -1.092149    1.171013
    7          1             0       -4.813533   -0.493331    0.022406
    8          1             0       -6.105412   -2.406395    0.913910
    9          1             0       -6.070361   -2.456490   -0.850783
   10          1             0       -8.321044   -1.432367   -0.943206
   11          1             0       -8.357222   -2.911297    0.020816
   12          1             0       -6.104455   -0.135793    2.103365
   13          1             0       -6.067401    1.343555    1.140051
   14          1             0       -8.354996    0.889827    2.009693
   15          1             0       -8.318940    0.838466    0.245075
   16          1             0       -8.221253   -1.579739    2.102263
   17          1             0       -9.611270   -1.074111    1.137883
   18          1             0       -6.203331    0.012772   -0.942060
 --------------------------------------------------------------------
     1 basis functions        1 primitive gaussians
     1 alpha electrons        1 beta electrons
 
 Harmonic frequencies (cm**-1), IR intensities (KM/Mole),
 Raman scattering activities (A**4/amu), Raman depolarization ratios,
 reduced masses (AMU), force constants (mDyne/A) and normal coordinates:
                      1                      2                      3
                        a                      a                      a 
 Frequencies --   231.9609               231.9842               375.8886
 Red. masses --     6.2465                 6.2469                 5.4521
 Frc consts  --     0.0000                 0.0000                 0.0000
 IR Inten    --     0.0058                 0.0061                 0.0001
 Raman Activ --     0.0000                 0.0000                 0.0000
 Depolar     --     0.0000                 0.0000                 0.0000
 Atom AN      X      Y      Z        X      Y      Z        X      Y      Z
   1   6     0.04   0.17  -0.25    -0.12   0.20  -0.12     0.01   0.22  -0.13
   2   6     0.01  -0.09   0.34    -0.12  -0.05  -0.12    -0.01   0.02   0.26
   3   6    -0.04  -0.10  -0.11     0.22  -0.16   0.25    -0.21   0.07  -0.13
   4   6     0.04   0.17  -0.24    -0.12   0.20  -0.12    -0.01  -0.22   0.13
   5   6     0.01  -0.09   0.34    -0.12  -0.05  -0.12     0.01  -0.02  -0.26
   6   6    -0.04  -0.10  -0.11     0.22  -0.16   0.25     0.21  -0.07   0.13
   7   1    -0.01   0.00  -0.05     0.06  -0.13   0.25    -0.06   0.10  -0.19
   8   1    -0.12   0.09   0.21    -0.08  -0.11  -0.08    -0.08   0.12   0.17
   9   1     0.09  -0.15   0.22    -0.05   0.04  -0.08     0.07  -0.10   0.18
  10   1     0.13   0.16  -0.06    -0.03   0.19   0.03     0.08   0.21   0.00
  11   1    -0.07   0.07  -0.20    -0.08   0.07  -0.16    -0.07   0.09  -0.19
  12   1     0.13   0.16  -0.06    -0.03   0.19   0.03    -0.08  -0.21  -0.00
  13   1    -0.07   0.07  -0.20    -0.08   0.07  -0.16     0.07  -0.09   0.19
  14   1     0.09  -0.15   0.22    -0.05   0.04  -0.08    -0.07   0.10  -0.18
  15   1    -0.12   0.09   0.21    -0.08  -0.11  -0.08     0.08  -0.12  -0.17
  16   1    -0.05  -0.11  -0.07     0.26  -0.03   0.02     0.23   0.00  -0.00
  17   1    -0.01   0.00  -0.05     0.06  -0.13   0.25     0.06  -0.10   0.19
  18   1    -0.05  -0.11  -0.07     0.26  -0.03   0.02    -0.23  -0.00   0.00
                      4                      5                      6
                        a                      a                      a 
 Frequencies --   418.9370               418.9698               540.0213
 Red. masses --     9.1539                 9.1534                 4.3921
 Frc consts  --     0.0000                 0.0000                 0.0000
 IR Inten    --     0.0000                 0.0001                 0.0349
 Raman Activ --     0.0000                 0.0000                 0.0000
 Depolar     --     0.0000                 0.0000                 0.0000
 Atom AN      X      Y      Z        X      Y      Z        X      Y      Z
   1   6     0.07   0.28   0.22     0.29   0.16   0.07     0.12   0.16   0.11
   2   6     0.12   0.18   0.03     0.27  -0.33  -0.14     0.12  -0.18  -0.07
   3   6     0.36   0.04  -0.23    -0.13  -0.21  -0.02    -0.19  -0.06   0.11
   4   6    -0.07  -0.28  -0.22    -0.29  -0.16  -0.07     0.12   0.16   0.11
   5   6    -0.12  -0.18  -0.03    -0.27   0.33   0.14     0.12  -0.18  -0.07
   6   6    -0.36  -0.04   0.23     0.13   0.21   0.02    -0.19  -0.06   0.11
   7   1     0.10  -0.01   0.06    -0.03   0.06   0.01    -0.05   0.09  -0.17
   8   1     0.06   0.09   0.02     0.13  -0.16  -0.10     0.13  -0.19  -0.14
   9   1    -0.05  -0.03   0.02     0.00  -0.03  -0.12    -0.07   0.10  -0.16
  10   1     0.04   0.16   0.10     0.14   0.10   0.02     0.13   0.23   0.08
  11   1     0.04   0.07  -0.06    -0.03   0.09  -0.01    -0.07   0.08  -0.17
  12   1    -0.04  -0.16  -0.10    -0.14  -0.10  -0.02     0.13   0.23   0.08
  13   1    -0.04  -0.07   0.06     0.03  -0.09   0.01    -0.07   0.08  -0.17
  14   1     0.05   0.03  -0.02    -0.00   0.03   0.12    -0.07   0.10  -0.16
  15   1    -0.06  -0.09  -0.02    -0.14   0.16   0.10     0.13  -0.19  -0.14
  16   1    -0.21  -0.01   0.10     0.07   0.10   0.02    -0.26  -0.04   0.08
  17   1    -0.10   0.01  -0.06     0.03  -0.06  -0.01    -0.05   0.09  -0.17
  18   1     0.21   0.01  -0.10    -0.07  -0.10  -0.02    -0.26  -0.04   0.08
                      7                      8                      9
                        a                      a                      a 
 Frequencies --   823.1774               823.2448               869.1513
 Red. masses --     4.4193                 4.4186                 9.4401
 Frc consts  --     0.0000                 0.0000                 0.0000
 IR Inten    --     0.0000                 0.0000                 0.0000
 Raman Activ --     0.0000                 0.0000                 0.0000
 Depolar     --     0.0000                 0.0000                 0.0000
 Atom AN      X      Y      Z        X      Y      Z        X      Y      Z
   1   6    -0.12  -0.13   0.13     0.06  -0.23   0.05     0.19   0.25   0.16
   2   6    -0.05   0.03   0.27    -0.12  -0.09  -0.05    -0.19   0.28   0.11
   3   6     0.08   0.11   0.11    -0.23   0.11  -0.09    -0.31  -0.09   0.16
   4   6     0.12   0.13  -0.13    -0.06   0.23  -0.05    -0.19  -0.25  -0.16
   5   6     0.05  -0.03  -0.27     0.12   0.09   0.05     0.19  -0.28  -0.11
   6   6    -0.08  -0.11  -0.11     0.23  -0.11   0.09     0.31   0.09  -0.16
   7   1     0.03   0.04  -0.11    -0.07  -0.15   0.28    -0.09  -0.08   0.15
   8   1     0.17  -0.23  -0.14     0.02   0.08   0.02    -0.00   0.00  -0.03
   9   1    -0.17   0.25  -0.16     0.05  -0.03   0.03    -0.11   0.16  -0.04
  10   1     0.14   0.15   0.06     0.10   0.21   0.11     0.00  -0.02   0.02
  11   1    -0.10  -0.01  -0.20    -0.14  -0.01  -0.22     0.11   0.05   0.15
  12   1    -0.14  -0.15  -0.06    -0.10  -0.21  -0.11    -0.00   0.02  -0.02
  13   1     0.10   0.01   0.20     0.14   0.01   0.22    -0.11  -0.05  -0.15
  14   1     0.17  -0.25   0.16    -0.05   0.03  -0.03     0.11  -0.16   0.04
  15   1    -0.17   0.23   0.14    -0.02  -0.08  -0.02     0.00  -0.00   0.03
  16   1     0.10   0.07  -0.02    -0.28  -0.04   0.12    -0.02   0.01  -0.02
  17   1    -0.03  -0.04   0.11     0.07   0.15  -0.28     0.09   0.08  -0.15
  18   1    -0.10  -0.07   0.02     0.28   0.04  -0.12     0.02  -0.01   0.02
                     10                     11                     12
                        a                      a                      a 
 Frequencies --   931.7846               931.8161               937.9748
 Red. masses --     4.4083                 4.4249                 6.8613
 Frc consts  --     0.0000                 0.0000                 0.0000
 IR Inten    --     0.0425                 0.0432                 0.0277
 Raman Activ --     0.0000                 0.0000                 0.0000
 Depolar     --     0.0000                 0.0000                 0.0000
 Atom AN      X      Y      Z        X      Y      Z        X      Y      Z
   1   6    -0.14  -0.16   0.08    -0.02   0.23   0.01     0.07   0.10   0.30
   2   6     0.11  -0.10  -0.25    -0.09  -0.10  -0.06    -0.19  -0.13   0.00
   3   6     0.08   0.11   0.07     0.28  -0.06   0.03     0.12   0.03  -0.30
   4   6    -0.14  -0.16   0.08    -0.02   0.23   0.01     0.07   0.10   0.30
   5   6     0.11  -0.10  -0.25    -0.09  -0.10  -0.06    -0.19  -0.13   0.00
   6   6     0.08   0.11   0.07     0.28  -0.06   0.03     0.12   0.03  -0.30
   7   1     0.02   0.11  -0.04     0.08   0.11  -0.26     0.03  -0.15  -0.05
   8   1    -0.07   0.21   0.11    -0.24  -0.10   0.03     0.10   0.07  -0.00
   9   1     0.17  -0.21   0.12    -0.03  -0.10   0.03    -0.26  -0.18  -0.00
  10   1    -0.08   0.19   0.15    -0.24  -0.08   0.03     0.14   0.08   0.06
  11   1    -0.16   0.00  -0.15     0.06   0.04   0.22    -0.13   0.08   0.05
  12   1    -0.08   0.19   0.15    -0.24  -0.08   0.03     0.14   0.08   0.06
  13   1    -0.16   0.00  -0.15     0.06   0.04   0.22    -0.13   0.08   0.05
  14   1     0.17  -0.21   0.12    -0.03  -0.10   0.03    -0.27  -0.18  -0.00
  15   1    -0.07   0.21   0.11    -0.24  -0.10   0.03     0.11   0.07  -0.00
  16   1    -0.06   0.21   0.14    -0.21  -0.11   0.04     0.13   0.10  -0.06
  17   1     0.02   0.11  -0.04     0.08   0.11  -0.26     0.03  -0.15  -0.05
  18   1    -0.06   0.21   0.14    -0.21  -0.11   0.04     0.13   0.10  -0.06
                     13                     14                     15
                        a                      a                      a 
 Frequencies --   937.9969              1013.0619              1063.7884
 Red. masses --     6.8768                 7.8657                 1.0203
 Frc consts  --     0.0000                 0.0000                 0.0000
 IR Inten    --     0.0281                 0.0045                 0.0001
 Raman Activ --     0.0000                 0.0000                 0.0000
 Depolar     --     0.0000                 0.0000                 0.0000
 Atom AN      X      Y      Z        X      Y      Z        X      Y      Z
   1   6     0.26  -0.03   0.05    -0.14  -0.29  -0.05    -0.01   0.00   0.01
   2   6    -0.19   0.28  -0.10    -0.14   0.20   0.21    -0.01  -0.01   0.00
   3   6    -0.07  -0.25   0.05     0.32   0.02  -0.04     0.00  -0.01  -0.01
   4   6     0.26  -0.03   0.05    -0.14  -0.29  -0.05     0.01  -0.00  -0.01
   5   6    -0.19   0.28  -0.10    -0.14   0.20   0.21     0.01   0.01   0.00
   6   6    -0.07  -0.25   0.05     0.32   0.02  -0.04     0.00   0.01   0.01
   7   1    -0.02  -0.24  -0.14     0.09   0.09  -0.18    -0.00  -0.17  -0.09
   8   1    -0.10   0.15   0.04     0.06  -0.08  -0.06     0.30   0.20   0.00
   9   1    -0.00  -0.00   0.04    -0.12   0.18  -0.06    -0.16  -0.11  -0.00
  10   1    -0.04   0.09   0.10     0.06   0.10   0.03     0.30  -0.12  -0.17
  11   1     0.23  -0.07  -0.14    -0.12  -0.05  -0.18    -0.16   0.06   0.09
  12   1    -0.04   0.09   0.10     0.06   0.10   0.03    -0.30   0.12   0.17
  13   1     0.23  -0.07  -0.14    -0.12  -0.05  -0.18     0.16  -0.06  -0.09
  14   1    -0.00  -0.00   0.04    -0.12   0.18  -0.06     0.16   0.11   0.00
  15   1    -0.10   0.15   0.04     0.06  -0.08  -0.06    -0.30  -0.20  -0.00
  16   1    -0.07   0.07   0.10    -0.11  -0.02   0.03    -0.00  -0.32  -0.17
  17   1    -0.02  -0.24  -0.14     0.09   0.09  -0.18     0.00   0.17   0.09
  18   1    -0.07   0.07   0.10    -0.11  -0.02   0.03     0.00   0.32   0.17
                     16                     17                     18
                        a                      a                      a 
 Frequencies --  1096.4621              1096.4944              1125.2570
 Red. masses --     5.9299                 5.9304                 5.2843
 Frc consts  --     0.0000                 0.0000                 0.0000
 IR Inten    --     0.0001                 0.0001                 0.0017
 Raman Activ --     0.0000                 0.0000                 0.0000
 Depolar     --     0.0000                 0.0000                 0.0000
 Atom AN      X      Y      Z        X      Y      Z        X      Y      Z
   1   6     0.11  -0.13  -0.18    -0.28   0.04   0.07     0.21  -0.08  -0.12
   2   6     0.03   0.20   0.00     0.30   0.13  -0.00    -0.21  -0.14  -0.00
   3   6     0.01  -0.30  -0.18    -0.10  -0.10   0.08     0.00   0.23   0.12
   4   6    -0.11   0.13   0.18     0.28  -0.04  -0.07     0.21  -0.08  -0.12
   5   6    -0.03  -0.20  -0.00    -0.30  -0.13   0.00    -0.21  -0.14  -0.00
   6   6    -0.01   0.30   0.18     0.10   0.10  -0.08     0.00   0.23   0.12
   7   1     0.00  -0.34  -0.18    -0.02  -0.07   0.03    -0.00  -0.23  -0.12
   8   1     0.05   0.04  -0.03     0.13   0.09   0.01    -0.15  -0.10  -0.00
   9   1     0.09   0.13  -0.02     0.31   0.18   0.01     0.22   0.15   0.00
  10   1     0.09  -0.02  -0.06    -0.11   0.06   0.05     0.15  -0.06  -0.08
  11   1     0.17  -0.09  -0.15    -0.27   0.09   0.11    -0.22   0.08   0.12
  12   1    -0.09   0.02   0.06     0.11  -0.06  -0.05     0.15  -0.06  -0.08
  13   1    -0.17   0.09   0.15     0.27  -0.09  -0.11    -0.22   0.08   0.12
  14   1    -0.09  -0.13   0.02    -0.31  -0.18  -0.01     0.22   0.15   0.00
  15   1    -0.05  -0.04   0.03    -0.13  -0.09  -0.01    -0.15  -0.10  -0.00
  16   1     0.00   0.15   0.08    -0.02   0.03  -0.01     0.00   0.16   0.08
  17   1    -0.00   0.34   0.18     0.02   0.07  -0.03    -0.00  -0.23  -0.12
  18   1    -0.00  -0.15  -0.08     0.02  -0.03   0.01     0.00   0.16   0.08
                     19                     20                     21
                        a                      a                      a 
 Frequencies --  1160.6417              1178.7822              1249.1858
 Red. masses --     3.8779                 7.7342                 3.2374
 Frc consts  --     0.0000                 0.0000                 0.0000
 IR Inten    --     0.0011                 0.0001                 0.0003
 Raman Activ --     0.0000                 0.0000                 0.0000
 Depolar     --     0.0000                 0.0000                 0.0000
 Atom AN      X      Y      Z        X      Y      Z        X      Y      Z
   1   6     0.17  -0.07  -0.10    -0.10   0.14  -0.27    -0.18  -0.00  -0.02
   2   6    -0.17  -0.12  -0.00     0.10  -0.14   0.27     0.17   0.02   0.01
   3   6     0.00   0.18   0.10    -0.10   0.14  -0.27    -0.11  -0.09   0.14
   4   6     0.17  -0.07  -0.10     0.10  -0.14   0.27     0.18  -0.00   0.03
   5   6    -0.17  -0.12  -0.00    -0.10   0.14  -0.27    -0.17  -0.01  -0.01
   6   6     0.00   0.18   0.10     0.10  -0.14   0.27     0.11   0.09  -0.14
   7   1     0.00   0.28   0.15    -0.03  -0.06   0.12    -0.03   0.01   0.06
   8   1    -0.13  -0.09  -0.00     0.12  -0.17  -0.05     0.26   0.15   0.01
   9   1    -0.26  -0.18  -0.00    -0.07   0.10  -0.06    -0.28  -0.22   0.01
  10   1     0.13  -0.05  -0.07    -0.12  -0.14  -0.11    -0.24   0.08   0.10
  11   1     0.26  -0.10  -0.15     0.07   0.00   0.12     0.24  -0.11  -0.17
  12   1     0.13  -0.05  -0.07     0.12   0.14   0.11     0.24  -0.08  -0.10
  13   1     0.26  -0.10  -0.15    -0.07  -0.00  -0.12    -0.24   0.11   0.17
  14   1    -0.26  -0.18  -0.00     0.07  -0.10   0.06     0.28   0.22  -0.01
  15   1    -0.13  -0.09  -0.00    -0.12   0.17   0.05    -0.26  -0.15  -0.01
  16   1     0.00   0.14   0.07    -0.17  -0.06   0.11     0.02   0.04  -0.03
  17   1     0.00   0.28   0.15     0.03   0.06  -0.12     0.03  -0.01  -0.06
  18   1     0.00   0.14   0.07     0.17   0.06  -0.11    -0.02  -0.05   0.02
                     22                     23                     24
                        a                      a                      a 
 Frequencies --  1249.2041              1251.5444              1251.5792
 Red. masses --     3.2375                 3.8902                 3.8895
 Frc consts  --     0.0000                 0.0000                 0.0000
 IR Inten    --     0.0003                 0.0476                 0.0482
 Raman Activ --     0.0000                 0.0000                 0.0000
 Depolar     --     0.0000                 0.0000                 0.0000
 Atom AN      X      Y      Z        X      Y      Z        X      Y      Z
   1   6     0.01   0.09   0.16     0.09  -0.08   0.18    -0.06   0.06  -0.18
   2   6     0.04  -0.19   0.02    -0.10   0.14  -0.22    -0.02   0.06  -0.07
   3   6    -0.01   0.14   0.09     0.01  -0.04   0.05     0.05  -0.13   0.25
   4   6    -0.01  -0.09  -0.17     0.08  -0.08   0.18    -0.06   0.07  -0.18
   5   6    -0.05   0.19  -0.02    -0.10   0.14  -0.22    -0.02   0.05  -0.07
   6   6     0.01  -0.14  -0.09     0.01  -0.04   0.05     0.05  -0.13   0.25
   7   1    -0.00  -0.34  -0.18     0.00   0.20   0.09     0.02  -0.01  -0.08
   8   1    -0.09  -0.11   0.01    -0.19   0.06   0.02     0.29   0.26   0.01
   9   1     0.16   0.05   0.01     0.09  -0.01   0.03    -0.17  -0.14   0.01
  10   1    -0.13   0.07   0.12     0.30  -0.02  -0.06     0.18  -0.16  -0.21
  11   1     0.21  -0.06  -0.06    -0.15   0.05   0.02    -0.11   0.06   0.12
  12   1     0.14  -0.07  -0.12     0.29  -0.02  -0.05     0.18  -0.16  -0.20
  13   1    -0.21   0.06   0.07    -0.15   0.05   0.02    -0.11   0.06   0.12
  14   1    -0.17  -0.05  -0.01     0.09  -0.01   0.03    -0.16  -0.13   0.01
  15   1     0.09   0.11  -0.01    -0.19   0.06   0.02     0.29   0.26   0.01
  16   1     0.00  -0.29  -0.16    -0.03  -0.36  -0.16    -0.12   0.03   0.14
  17   1     0.00   0.35   0.18     0.00   0.20   0.09     0.02  -0.01  -0.08
  18   1    -0.00   0.29   0.16    -0.03  -0.36  -0.16    -0.12   0.03   0.14
                     25                     26                     27
                        a                      a                      a 
 Frequencies --  1332.0151              1350.4081              1350.4850
 Red. masses --     3.7471                 4.8643                 4.7263
 Frc consts  --     0.0000                 0.0000                 0.0000
 IR Inten    --     0.0002                 0.0040                 0.0940
 Raman Activ --     0.0000                 0.0000                 0.0000
 Depolar     --     0.0000                 0.0000                 0.0000
 Atom AN      X      Y      Z        X      Y      Z        X      Y      Z
   1   6     0.17  -0.07  -0.09     0.20  -0.08  -0.12     0.13  -0.14  -0.11
   2   6     0.17   0.11   0.00    -0.19  -0.13   0.00     0.25   0.20   0.01
   3   6     0.00   0.18   0.09    -0.00   0.22   0.12    -0.10   0.06   0.07
   4   6    -0.17   0.07   0.09     0.20  -0.08  -0.12     0.13  -0.14  -0.11
   5   6    -0.17  -0.11  -0.00    -0.19  -0.13   0.00     0.25   0.20   0.01
   6   6     0.00  -0.18  -0.09    -0.00   0.22   0.12    -0.10   0.06   0.07
   7   1    -0.00  -0.28  -0.15    -0.00  -0.00   0.00    -0.03  -0.15   0.01
   8   1    -0.13  -0.09  -0.00     0.26   0.18   0.00    -0.20  -0.13   0.00
   9   1    -0.26  -0.18  -0.00    -0.02  -0.01  -0.00    -0.33  -0.21  -0.01
  10   1    -0.13   0.05   0.07    -0.28   0.11   0.15    -0.12   0.04   0.06
  11   1    -0.26   0.10   0.15    -0.00   0.00  -0.00    -0.26   0.08   0.07
  12   1     0.13  -0.05  -0.07    -0.28   0.11   0.15    -0.12   0.04   0.06
  13   1     0.26  -0.10  -0.15    -0.00   0.00  -0.00    -0.26   0.08   0.07
  14   1     0.26   0.18   0.00    -0.02  -0.01  -0.00    -0.33  -0.20  -0.01
  15   1     0.13   0.09   0.00     0.26   0.18   0.00    -0.20  -0.13   0.00
  16   1     0.00   0.14   0.07    -0.00  -0.29  -0.15    -0.01  -0.05  -0.02
  17   1     0.00   0.28   0.15    -0.00  -0.00   0.00    -0.03  -0.15   0.02
  18   1    -0.00  -0.14  -0.07    -0.00  -0.29  -0.15    -0.01  -0.06  -0.02
                     28                     29                     30
                        a                      a                      a 
 Frequencies --  1350.5231              1360.3548              1360.3694
 Red. masses --     4.7265                 5.3629                 5.3631
 Frc consts  --     0.0000                 0.0000                 0.0000
 IR Inten    --     0.0947                 0.0002                 0.0002
 Raman Activ --     0.0000                 0.0000                 0.0000
 Depolar     --     0.0000                 0.0000                 0.0000
 Atom AN      X      Y      Z        X      Y      Z        X      Y      Z
   1   6    -0.23   0.01   0.09    -0.11  -0.11   0.05    -0.26   0.14   0.15
   2   6     0.11  -0.04  -0.06     0.25   0.20   0.04     0.12  -0.01  -0.12
   3   6     0.03   0.27   0.13    -0.10  -0.21  -0.12    -0.11   0.21   0.09
   4   6    -0.23   0.01   0.09     0.11   0.11  -0.05     0.26  -0.14  -0.15
   5   6     0.11  -0.04  -0.06    -0.25  -0.20  -0.04    -0.12   0.01   0.12
   6   6     0.03   0.27   0.13     0.10   0.21   0.12     0.11  -0.21  -0.09
   7   1     0.01  -0.32  -0.20    -0.02   0.09   0.09    -0.03  -0.12  -0.02
   8   1    -0.03  -0.04  -0.01    -0.31  -0.23  -0.01    -0.13  -0.02   0.02
   9   1    -0.02  -0.12   0.03    -0.14  -0.07  -0.00    -0.01  -0.08   0.01
  10   1     0.13  -0.06  -0.08     0.11   0.01  -0.02     0.32  -0.14  -0.19
  11   1     0.21  -0.11  -0.19    -0.00  -0.03  -0.06     0.14  -0.05  -0.07
  12   1     0.14  -0.06  -0.08    -0.11  -0.01   0.02    -0.32   0.14   0.19
  13   1     0.21  -0.11  -0.19     0.00   0.03   0.06    -0.14   0.05   0.06
  14   1    -0.02  -0.12   0.03     0.14   0.07   0.00     0.01   0.08  -0.01
  15   1    -0.03  -0.04  -0.01     0.31   0.23   0.01     0.13   0.02  -0.02
  16   1     0.00  -0.19  -0.10    -0.03  -0.27  -0.12    -0.04   0.24   0.15
  17   1     0.01  -0.33  -0.20     0.02  -0.09  -0.09     0.03   0.12   0.02
  18   1     0.00  -0.19  -0.10     0.04   0.27   0.12     0.04  -0.24  -0.15
                     31                     32                     33
                        a                      a                      a 
 Frequencies --  1485.2942              1485.3266              1493.8838
 Red. masses --     1.8827                 1.8828                 2.0588
 Frc consts  --     0.0000                 0.0000                 0.0000
 IR Inten    --     0.0000                 0.0000                 0.0239
 Raman Activ --     0.0000                 0.0000                 0.0000
 Depolar     --     0.0000                 0.0000                 0.0000
 Atom AN      X      Y      Z        X      Y      Z        X      Y      Z
   1   6     0.07   0.04   0.07    -0.06  -0.05  -0.10    -0.09  -0.07  -0.09
   2   6     0.09  -0.13   0.02    -0.00  -0.04   0.00     0.10  -0.13  -0.00
   3   6    -0.03  -0.04   0.03    -0.09  -0.05   0.11     0.01   0.02  -0.00
   4   6    -0.07  -0.04  -0.07     0.06   0.05   0.10    -0.09  -0.07  -0.09
   5   6    -0.09   0.13  -0.02     0.00   0.04  -0.00     0.10  -0.13  -0.00
   6   6     0.03   0.04  -0.03     0.09   0.05  -0.11     0.01   0.02  -0.00
   7   1     0.00   0.06  -0.11     0.01   0.17  -0.33    -0.00  -0.04   0.01
   8   1    -0.18   0.26   0.22    -0.03   0.06   0.04    -0.17   0.24   0.20
   9   1    -0.17   0.25  -0.24    -0.03   0.05  -0.05    -0.16   0.22  -0.22
  10   1    -0.12  -0.22  -0.06     0.13   0.25   0.07     0.16   0.27   0.07
  11   1    -0.11   0.04  -0.23     0.13  -0.04   0.26     0.15  -0.06   0.27
  12   1     0.12   0.22   0.06    -0.13  -0.25  -0.07     0.16   0.27   0.07
  13   1     0.11  -0.04   0.23    -0.13   0.04  -0.26     0.15  -0.06   0.27
  14   1     0.17  -0.25   0.24     0.03  -0.05   0.05    -0.16   0.22  -0.22
  15   1     0.18  -0.26  -0.22     0.03  -0.06  -0.04    -0.17   0.24   0.20
  16   1    -0.12  -0.02   0.03    -0.36  -0.04   0.09    -0.03  -0.02  -0.00
  17   1    -0.00  -0.06   0.11    -0.01  -0.17   0.33    -0.00  -0.04   0.01
  18   1     0.12   0.02  -0.03     0.35   0.04  -0.09    -0.03  -0.02  -0.00
                     34                     35                     36
                        a                      a                      a 
 Frequencies --  1493.9003              1495.7872              1510.2876
 Red. masses --     2.0591                 1.8566                 2.0393
 Frc consts  --     0.0000                 0.0000                 0.0000
 IR Inten    --     0.0251                 0.0277                 0.0001
 Raman Activ --     0.0000                 0.0000                 0.0000
 Depolar     --     0.0000                 0.0000                 0.0000
 Atom AN      X      Y      Z        X      Y      Z        X      Y      Z
   1   6    -0.04  -0.06  -0.08     0.06   0.04   0.08     0.07   0.06   0.08
   2   6    -0.03   0.07   0.00     0.06  -0.09   0.01    -0.07   0.10   0.00
   3   6    -0.12  -0.06   0.12    -0.06  -0.04   0.08    -0.08  -0.04   0.08
   4   6    -0.04  -0.06  -0.08     0.06   0.04   0.08    -0.07  -0.06  -0.08
   5   6    -0.03   0.07   0.00     0.06  -0.09   0.01     0.07  -0.10  -0.00
   6   6    -0.12  -0.06   0.12    -0.06  -0.04   0.08     0.08   0.04  -0.08
   7   1     0.00   0.18  -0.34     0.01   0.13  -0.25     0.00   0.13  -0.24
   8   1     0.06  -0.12  -0.09    -0.13   0.19   0.16     0.13  -0.19  -0.16
   9   1     0.05  -0.12   0.10    -0.12   0.18  -0.17     0.12  -0.17   0.17
  10   1     0.09   0.20   0.06    -0.13  -0.24  -0.06    -0.13  -0.24  -0.07
  11   1     0.08  -0.03   0.21    -0.12   0.04  -0.25    -0.12   0.04  -0.24
  12   1     0.09   0.20   0.06    -0.13  -0.24  -0.06     0.13   0.24   0.07
  13   1     0.08  -0.03   0.21    -0.12   0.04  -0.25     0.12  -0.04   0.24
  14   1     0.05  -0.12   0.10    -0.12   0.18  -0.17    -0.12   0.17  -0.17
  15   1     0.06  -0.12  -0.09    -0.13   0.19   0.16    -0.13   0.19   0.16
  16   1     0.37   0.05  -0.09     0.27   0.03  -0.06    -0.27  -0.03   0.07
  17   1     0.00   0.17  -0.34     0.01   0.13  -0.25    -0.00  -0.13   0.24
  18   1     0.37   0.05  -0.09     0.27   0.03  -0.06     0.27   0.03  -0.07
                     37                     38                     39
                        a                      a                      a 
 Frequencies --  2958.1683              2958.2551              2959.0485
 Red. masses --     1.9248                 1.9233                 1.8492
 Frc consts  --     0.0000                 0.0000                 0.0000
 IR Inten    --     0.1883                 0.1852                 0.0168
 Raman Activ --     0.0000                 0.0000                 0.0000
 Depolar     --     0.0000                 0.0000                 0.0000
 Atom AN      X      Y      Z        X      Y      Z        X      Y      Z
   1   6    -0.01   0.11  -0.10    -0.01   0.07  -0.06    -0.01   0.08  -0.07
   2   6     0.00   0.00   0.00     0.01  -0.02   0.17     0.01  -0.01   0.10
   3   6     0.10  -0.05   0.09    -0.06   0.03  -0.06    -0.07   0.04  -0.07
   4   6    -0.01   0.11  -0.09    -0.01   0.06  -0.05     0.01  -0.09   0.08
   5   6     0.00   0.00  -0.00     0.01  -0.02   0.15    -0.01   0.01  -0.12
   6   6     0.10  -0.05   0.10    -0.05   0.03  -0.05     0.08  -0.04   0.08
   7   1    -0.24  -0.00   0.00     0.16   0.00  -0.00     0.18   0.00  -0.00
   8   1    -0.01   0.00  -0.01    -0.16   0.24  -0.42    -0.10   0.14  -0.25
   9   1     0.00  -0.00  -0.00     0.11  -0.16  -0.22     0.06  -0.08  -0.11
  10   1     0.13  -0.17   0.36     0.09  -0.11   0.23     0.10  -0.13   0.27
  11   1    -0.09  -0.24  -0.00    -0.06  -0.14  -0.00    -0.06  -0.15  -0.00
  12   1     0.13  -0.16   0.34     0.07  -0.09   0.17    -0.12   0.16  -0.33
  13   1    -0.09  -0.22  -0.00    -0.05  -0.11  -0.00     0.08   0.19   0.00
  14   1    -0.00   0.00   0.00     0.10  -0.14  -0.19    -0.07   0.11   0.15
  15   1    -0.00  -0.01   0.01    -0.14   0.21  -0.37     0.12  -0.18   0.32
  16   1    -0.11   0.19  -0.36     0.06  -0.10   0.18    -0.09   0.16  -0.30
  17   1    -0.25  -0.00   0.00     0.13   0.00  -0.00    -0.19  -0.00   0.00
  18   1    -0.11   0.18  -0.34     0.07  -0.12   0.23     0.09  -0.15   0.29
                     40                     41                     42
                        a                      a                      a 
 Frequencies --  2965.2127              2965.3277              2968.0798
 Red. masses --     1.9940                 1.9939                 1.7013
 Frc consts  --     0.0000                 0.0000                 0.0000
 IR Inten    --     0.0019                 0.0066                 0.1787
 Raman Activ --     0.0000                 0.0000                 0.0000
 Depolar     --     0.0000                 0.0000                 0.0000
 Atom AN      X      Y      Z        X      Y      Z        X      Y      Z
   1   6    -0.01  -0.13   0.07     0.01   0.08  -0.04    -0.03  -0.09   0.00
   2   6    -0.00  -0.00  -0.01     0.02  -0.02  -0.17    -0.03   0.05   0.08
   3   6    -0.13   0.04  -0.07    -0.07   0.01  -0.04     0.10  -0.00   0.00
   4   6     0.01   0.13  -0.07    -0.01  -0.08   0.04    -0.03  -0.10   0.01
   5   6     0.00   0.00   0.01    -0.01   0.02   0.17    -0.03   0.05   0.09
   6   6     0.13  -0.04   0.07     0.06  -0.01   0.04     0.10  -0.00   0.01
   7   1     0.40  -0.01   0.01     0.23  -0.00   0.01    -0.39   0.01  -0.02
   8   1     0.00  -0.00   0.01     0.10  -0.15   0.25    -0.00   0.00   0.03
   9   1    -0.00   0.01   0.01    -0.17   0.24   0.37     0.13  -0.19  -0.30
  10   1    -0.08   0.10  -0.22     0.05  -0.06   0.14    -0.00  -0.02   0.02
  11   1     0.14   0.37  -0.01    -0.09  -0.24   0.01     0.13   0.36  -0.02
  12   1     0.09  -0.10   0.23    -0.05   0.06  -0.14    -0.01  -0.01  -0.00
  13   1    -0.14  -0.36   0.01     0.08   0.21  -0.01     0.14   0.38  -0.02
  14   1     0.01  -0.01  -0.02     0.16  -0.23  -0.35     0.14  -0.20  -0.32
  15   1    -0.00   0.01  -0.01    -0.10   0.15  -0.25    -0.01   0.01   0.00
  16   1    -0.06   0.12  -0.23    -0.03   0.06  -0.12     0.02  -0.00   0.00
  17   1    -0.41   0.01  -0.01    -0.20   0.00  -0.01    -0.40   0.01  -0.02
  18   1     0.06  -0.12   0.23     0.03  -0.06   0.12     0.02  -0.01   0.01
                     43                     44                     45
                        a                      a                      a 
 Frequencies --  2976.2237              2976.2542              2982.2451
 Red. masses --     1.5148                 1.5146                 1.5184
 Frc consts  --     0.0000                 0.0000                 0.0000
 IR Inten    --     0.0053                 0.0049                 0.4491
 Raman Activ --     0.0000                 0.0000                 0.0000
 Depolar     --     0.0000                 0.0000                 0.0000
 Atom AN      X      Y      Z        X      Y      Z        X      Y      Z
   1   6    -0.06  -0.02  -0.09    -0.03  -0.01  -0.04    -0.06  -0.08  -0.05
   2   6    -0.01   0.01  -0.00    -0.07   0.10  -0.04    -0.00  -0.00  -0.00
   3   6    -0.04  -0.04   0.09     0.02   0.03  -0.06    -0.09  -0.03   0.05
   4   6     0.06   0.02   0.09     0.03   0.01   0.04    -0.06  -0.08  -0.05
   5   6     0.01  -0.01   0.00     0.07  -0.10   0.04    -0.00  -0.00   0.00
   6   6     0.04   0.04  -0.08    -0.03  -0.03   0.06    -0.09  -0.03   0.05
   7   1     0.26  -0.01   0.02    -0.18   0.01  -0.02     0.40  -0.01   0.03
   8   1     0.01  -0.02   0.03     0.14  -0.20   0.40    -0.00   0.00  -0.01
   9   1     0.01  -0.01  -0.02     0.10  -0.15  -0.26    -0.00   0.00   0.01
  10   1     0.13  -0.19   0.36     0.06  -0.09   0.17     0.07  -0.12   0.21
  11   1     0.09   0.28  -0.03     0.04   0.12  -0.01     0.14   0.39  -0.03
  12   1    -0.12   0.19  -0.35    -0.06   0.09  -0.17     0.07  -0.12   0.21
  13   1    -0.09  -0.27   0.03    -0.04  -0.13   0.01     0.14   0.40  -0.03
  14   1    -0.01   0.01   0.02    -0.10   0.15   0.26    -0.00  -0.00  -0.00
  15   1    -0.01   0.02  -0.03    -0.14   0.20  -0.39    -0.00  -0.00   0.00
  16   1     0.12  -0.17   0.32    -0.08   0.12  -0.23    -0.09   0.11  -0.22
  17   1    -0.25   0.01  -0.02     0.19  -0.01   0.02     0.42  -0.02   0.03
  18   1    -0.12   0.17  -0.32     0.08  -0.12   0.23    -0.08   0.11  -0.21
                     46                     47                     48
                        a                      a                      a 
 Frequencies --  2982.3516              2984.5139              2985.5760
 Red. masses --     1.5195                 1.5393                 1.8083
 Frc consts  --     0.0000                 0.0000                 0.0000
 IR Inten    --     0.4481                 0.0209                 0.6474
 Raman Activ --     0.0000                 0.0000                 0.0000
 Depolar     --     0.0000                 0.0000                 0.0000
 Atom AN      X      Y      Z        X      Y      Z        X      Y      Z
   1   6     0.03   0.05   0.03    -0.04  -0.06  -0.04    -0.03   0.05  -0.09
   2   6    -0.07   0.10   0.04     0.04  -0.06  -0.03    -0.03   0.05  -0.09
   3   6    -0.06  -0.01   0.03     0.08   0.02  -0.04    -0.03   0.05  -0.09
   4   6     0.03   0.04   0.03     0.05   0.07   0.04    -0.03   0.05  -0.09
   5   6    -0.06   0.09   0.04    -0.05   0.07   0.04    -0.04   0.05  -0.09
   6   6    -0.05  -0.01   0.03    -0.08  -0.02   0.04    -0.03   0.05  -0.09
   7   1     0.26  -0.01   0.02    -0.34   0.01  -0.02     0.01   0.01  -0.01
   8   1     0.08  -0.12   0.25    -0.05   0.07  -0.16     0.12  -0.18   0.33
   9   1     0.16  -0.24  -0.40    -0.11   0.16   0.27    -0.00   0.01  -0.01
  10   1    -0.05   0.08  -0.13     0.05  -0.09   0.15     0.12  -0.17   0.33
  11   1    -0.08  -0.24   0.02     0.11   0.31  -0.02    -0.01  -0.00  -0.01
  12   1    -0.04   0.07  -0.12    -0.06   0.10  -0.17     0.12  -0.17   0.33
  13   1    -0.07  -0.21   0.01    -0.12  -0.34   0.02    -0.01  -0.00  -0.01
  14   1     0.16  -0.23  -0.38     0.12  -0.18  -0.30    -0.00   0.01  -0.02
  15   1     0.08  -0.11   0.24     0.06  -0.08   0.18     0.12  -0.18   0.33
  16   1    -0.05   0.06  -0.12    -0.07   0.08  -0.16     0.11  -0.17   0.33
  17   1     0.23  -0.01   0.02     0.35  -0.01   0.02     0.01   0.01  -0.01
  18   1    -0.06   0.07  -0.14     0.07  -0.08   0.16     0.11  -0.17   0.33
