 
        ______________________________________
       |                                      |
       |           ==================         |
       |                 x T B                |
       |           ==================         |
       |               S. Grimme              |
       |        Universitaet Bonn, MCTC       |
       |         2015-18, Version 5.8.1       |
       |      Sun May  6 11:39:08 CEST 2018   |
       |______________________________________|
 
        This code comes without any warranty
        for non-commercial, academia use only.
        Preliminary GFN2 test version.
        Test license to: Dow Chemical Company
        Cite GFN-xTB work as:
        S. Grimme, C. Bannwarth, P. Shushkov
        JCTC, 13 (2017) 1989-2009
        for GFN2:
        C. Bannwarth, S. Ehlert, S. Grimme
        to be published.
        sTDA-xTB:
        S. Grimme  &  C. Bannwarth, JCP 145 (2016) 054103
        in the mass-spec context additionally:
        V. Asgeirsson, C.Bauer, S. Grimme, Chem. Sci. 8 (2017) 4879
 
        with help from
        P. Shushkov, G. Brandenburg, S. Dohm, J. Pisarek,
        F. März, M. Checinski, S. Ehrlich, S. Spicher, 
        P. Pracht, E. Caldeweyher, S. Ehlert, and C. Bannwarth.
 
        usage        :
        xtb <coord_file> [options]
        where <coord_file> is a valid file of TM)
        (*coord, Bohr) or xmol (*xyz, Angstroem)
        format.

        options:
        -chrg <int>   : molecular charge
        -uhf  <int>   : # of unpaired electrons(=2*S)
        -nox          : skip second, extended part in sTDA-xTB
        -pop          : do population analysis
                      : (default for -nox)
        -mowr <real>  : cut MO write above (def.3 Eh)
        -molden       : write formatted molden file
        -parx <file>  : read parameters for sTDA-xTB
                        calc (def:~/.param_stda2.xtb)
        -parv <file>  : read parameters for vTB part in
                        sTDA-xTB (def: ~/.param_stda1.xtb)
        -xtemp <real> : el. temp for xTB (def. 0 K)
        -etemp <real> : el. temp for GFN (def. 300 K)
        -fod          : calculate the FOD and write
                        molden.input file with
                        appropriate occupations
                        for plotting. Def. T=12500 K
 
        -gfn1         : use GFN-xTB
        -gfn2         : use GFN2-xTB
        -gfn2d3       : GFN2-xTB with D3 instead of D4
        -grad         : GFNn-xTB gradient
        -acc <real>   : GFNn-xTB accuracy (def. 1.0)
        -opt [level]  : optimize at GFNn-xTB
                      : level=crude,vloose,loose,
                      :       tight,vtight
        -hess         : compute Hessian at GFNn-xTB
        -ohess        : optimize and compute Hessian
        -omd          : optimize and do MD
        -siman        : conformational search
        -screen       : opt. loop over ensemble
        -gmd          : annealed MD for GMD procedure
        -modef        : vib mode following
        -gbsa [string1] [string2]
                        use GBSA implicit solvent
                        for solvent [string1] and
                        solvation state [string2]=
                        reference, bar1M (default=1M)
        additional GFN/opt/MD/siman options read from
        $XTBHOME/.xtbrc or $set in coordinate file
 
       spin and charge state information can be on:
       <.CHRG> (charge) and <.UHF> (=nalpha-nbeta)
       -uhf and -chrg override the file info.
       useful machine settings:
       setenv MKL_NUM_THREADS <NCORE_ON_YOUR_MACHINE>
       setenv OMP_STACKSIZE 500m
       limit stacksize unlimited
 
       total energies in Eh, gaps/HL energies in eV
       please read REVISION and HOWTO files carefully
          72  days left until this code expires
 =============================
  # OMP threads =           2
 =============================
 
 xtbhome directory:/home/ua25450/dftb/
 
 argument            1 :-ohess
 
 name of molecule           :
 comment line               :
 number of atoms            :    20
 number of electrons        :    38
 charge                     :  0
 spin                       : 0.0
 first test random number   :  0.3060
 
 
 -----------------------------------------
  G F N (Geometry, Frequency, Non-covalent)
        parametrization, gfnver=           3
     D4 dispersion model
 /home/ua25450/dftb/.param_gfn2.xtb
 -----------------------------------------
      method parameters     
 k(s)        :  1.8500
 k(p)        :  2.2300
 k(d)        :  2.2300
 k(f)        :  2.0000
 kEN (H0ij)  : -2.0000
 D3 a1       :  0.5200
 D3 a2       :  5.0000
 D3 s8       :  2.7000
 D3atm       :  5.0000
 alphaj      :  2.0000
 
     -------------------------
     ! NO SOLVENT MODEL USED !
     -------------------------
 
 doing EN charges ...
 sum q : -0.3330669D-15
 point charge moment (au)
     X       Y       Z   
   0.0001   0.0001  -0.0000  total (Debye):    0.000
 
            Z     q(EN)     CN     RAES       Cart. coordinates
     1  C   4.0   -0.13    4.02    3.65    -5.42129    -0.38060    -0.03088
     2  H   1.0    0.04    1.00    1.43    -4.75569    -2.32515    -0.08191
     3  H   1.0    0.04    1.00    1.43    -4.74046     0.58217    -1.71425
     4  H   1.0    0.04    1.00    1.43    -7.47650    -0.40136    -0.08206
     5  C   4.0   -0.09    4.06    3.72    -4.48417     0.94492     2.34734
     6  H   1.0    0.04    1.01    1.43    -5.13986     2.90265     2.34449
     7  C   4.0   -0.09    4.12    3.84    -5.41072    -0.36504     4.74538
     8  H   1.0    0.04    1.01    1.43    -7.47556    -0.39962     4.74703
     9  H   1.0    0.04    1.01    1.43    -4.75611    -2.32366     4.74674
    10  C   4.0   -0.09    4.12    3.84    -4.47751     0.95359     7.13537
    11  H   1.0    0.04    1.01    1.43    -2.41267     0.98813     7.13315
    12  H   1.0    0.04    1.01    1.43    -5.13202     2.91226     7.13336
    13  H   1.0    0.04    1.01    1.43    -2.41984     0.97919     2.34473
    14  C   4.0   -0.09    4.06    3.72    -5.40287    -0.35441     9.53484
    15  H   1.0    0.04    1.01    1.43    -4.74792    -2.31237     9.53906
    16  H   1.0    0.04    1.01    1.43    -7.46720    -0.38780     9.53945
    17  C   4.0   -0.13    4.02    3.65    -4.46270     0.97345    11.91062
    18  H   1.0    0.04    1.00    1.43    -5.14348     0.01439    13.59610
    19  H   1.0    0.04    1.00    1.43    -2.40740     0.99187    11.96018
    20  H   1.0    0.04    1.00    1.43    -5.12579     2.91898    11.95877
 
  Z AO/shell   Hii/eV     exponent
  1     Wed Apr 25 08:07:45 CEST 2018   EN: 2.200 GM2: 0.406  GM3: 0.0800  RAES: 1.40
     1s    -10.707211    1.230000
  6     Wed Apr 25 08:07:45 CEST 2018   EN: 2.550 GM2: 0.538  GM3: 0.1500  RAES: 3.00
     2s    -13.970922    2.096432
     2p    -10.063292    1.800000
 
Refinement of some symmetry elements was terminated before convergence was reached.
Some symmetry elements may remain unidentified.
Molecule has the following symmetry elements: (i) (C2) (sigma) 
It seems to be the C2h point group
c2h symmetry found (for desy threshold:  0.10E+00) used in thermo
 no old-style atom pair restraing (fixing) potential
 
             =======================================
             |                                     |
             |        S C C  calculation           |
             |                                     |
             =======================================
 #proc     :            2
 Ncao      :           38
 Nao       :           38
 Nel       :           38
 T(el)     :   300.0
 intcut    :    25.0
 scfconv   :  0.100E-05
   qconv   :  0.100E-03
 intneglect:  0.100E-07
 broydamp  :      0.400
 Nshell    :           26
  q data taken from xtbrestart
  CAMM data taken from xtbrestart
 iter      E             dE          RMSdq      gap      omega  full diag
   1    -20.2981080 -0.202981E+02  0.462E-07   13.02       0.0  T
   2    -20.2981080  0.355271E-13  0.242E-07   13.02   92587.8  T
   3    -20.2981080 -0.213163E-13  0.284E-08   13.02  100000.0  T
speedup  1.00
cpu  time for SCC    0.01 s
wall time for SCC    0.01 s

          eigenvalues
 #    :           7          8          9         10         11         12         13         14
 occ. :        2.000      2.000      2.000      2.000      2.000      2.000      2.000      2.000
 eps  :       -14.143    -13.615    -13.554    -13.322    -12.819    -12.664    -12.586    -12.032
 #    :          15         16         17         18         19         20         21         22
 occ. :        2.000      2.000      2.000      2.000      2.000      0.000      0.000      0.000
 eps  :       -11.939    -11.674    -11.528    -11.429    -11.349      1.669      3.086      3.181
 #    :          23         24         25         26         27         28         29         30
 occ. :        0.000      0.000      0.000      0.000      0.000      0.000      0.000      0.000
 eps  :         3.558      4.078      4.264      4.271      4.523      4.961      5.005      5.312
 

   #   Z            q   n(s)   n(p)   n(d)      C6AA      α(0)    relVol
   1   6 C     -0.102  1.037  3.065  0.000    22.646     6.807     0.551
   2   1 H      0.033  0.967  0.000  0.000     2.539     2.492     0.493
   3   1 H      0.032  0.968  0.000  0.000     2.547     2.496     0.494
   4   1 H      0.033  0.967  0.000  0.000     2.539     2.492     0.493
   5   6 C     -0.053  1.048  3.005  0.000    21.604     6.629     0.537
   6   1 H      0.028  0.972  0.000  0.000     2.606     2.524     0.499
   7   6 C     -0.059  1.052  3.007  0.000    21.684     6.635     0.537
   8   1 H      0.029  0.971  0.000  0.000     2.595     2.519     0.498
   9   1 H      0.029  0.971  0.000  0.000     2.595     2.519     0.498
  10   6 C     -0.059  1.052  3.007  0.000    21.684     6.635     0.537
  11   1 H      0.029  0.971  0.000  0.000     2.595     2.519     0.498
  12   1 H      0.029  0.971  0.000  0.000     2.595     2.519     0.498
  13   1 H      0.028  0.972  0.000  0.000     2.606     2.524     0.499
  14   6 C     -0.053  1.048  3.005  0.000    21.604     6.629     0.537
  15   1 H      0.028  0.972  0.000  0.000     2.606     2.524     0.499
  16   1 H      0.028  0.972  0.000  0.000     2.606     2.524     0.499
  17   6 C     -0.102  1.037  3.065  0.000    22.646     6.807     0.551
  18   1 H      0.032  0.968  0.000  0.000     2.547     2.496     0.494
  19   1 H      0.033  0.967  0.000  0.000     2.539     2.492     0.493
  20   1 H      0.033  0.967  0.000  0.000     2.539     2.492     0.493

 Mol. C6AA /au*bohr^6 :       2551.795913
 Mol. C8AA /au*bohr^6 :      52465.703569
 Mol. a(0) /au        :         75.269494

 
 Wiberg/Mayer (AO) data. WBOs > 0.1 written file <wbo>
 largest (>0.05) Wiberg bond orders for each atom
           total WBO             WBO to atom ...
     1  C   3.997    C    5 1.019    H    4 0.988    H    2 0.988    H    3 0.988
     2  H   0.999    C    1 0.988
     3  H   0.999    C    1 0.988
     4  H   0.999    C    1 0.988
     5  C   3.998    C    1 1.019    C    7 1.008    H    6 0.979    H   13 0.979
     6  H   0.999    C    5 0.979
     7  C   3.997    C    5 1.008    C   10 1.007    H    8 0.978    H    9 0.978
     8  H   0.999    C    7 0.978
     9  H   0.999    C    7 0.978
    10  C   3.997    C   14 1.008    C    7 1.007    H   11 0.978    H   12 0.978
    11  H   0.999    C   10 0.978
    12  H   0.999    C   10 0.978
    13  H   0.999    C    5 0.979
    14  C   3.998    C   17 1.019    C   10 1.008    H   16 0.979    H   15 0.979
    15  H   0.999    C   14 0.979
    16  H   0.999    C   14 0.979
    17  C   3.997    C   14 1.019    H   19 0.988    H   20 0.988    H   18 0.988
    18  H   0.999    C   17 0.988
    19  H   0.999    C   17 0.988
    20  H   0.999    C   17 0.988
 
molecular dipole:
                 x           y           z       tot (Debye)
 q only:        0.000       0.000      -0.000
   full:        0.000       0.000      -0.000       0.000
molecular quadrupole (traceless):
                xx          xy          yy          xz          yz          zz
 q only:       -0.218       0.145      -0.114       0.073       0.103       0.332
  q+dip:        1.042      -0.736       0.525      -0.230      -0.326      -1.567
   full:        0.439      -0.332       0.207      -0.088      -0.125      -0.647
 SCC converged in            3  cycles
 
SCC energy    :     -20.2981080
rep           :       0.3042833
ES            :       0.0039003
AES           :       0.0068096
AXC           :       0.0127362
disp          :      -0.0104112
XB            :       0.0000000
fix           :       0.0000000
total E       :     -19.9938448
atomizationE  :       4.7478153     2979.30
(atE without considerung molecular charge,
 total energy contains solvation terms)
H-L gap (eV)  :         13.0175
 
             =======================================
             |                                     |
             |    Approximate Normal Coordinate    |
             |   Rational Function Optimization    |
             |                                     |
             =======================================
Ref. for RF algo: F.Eckert, P.Pulay, H.-J.Werner
                  J.Comput.Chem. 18 (1997) 1473.
ANC idea implemented by S. Grimme in the 2000ers (unpublished)
restraining potential by S. Ehrlich.
dumping coords to <xtbopt.coord> and <xtbopt.log
 optlevel               1
 Maxcycle             200
 Maxmicro              20
 Econv         1.000000000000000E-006
 Gconv         8.000000000000000E-004
 Maxdispl       1.00000000000000     
 Hlow          1.000000000000000E-002
 S6             20.0000000000000     
 Nvar               54

generating ANC from read Hessian ...
 Shifting diagonal of input Hessian by   9.628168271120121E-003
 Lowest  eigenvalues of input Hessian
   -0.000000   -0.000000   -0.000000    0.000000    0.000000    0.000000
    0.010000    0.010259    0.011016    0.011579    0.011968    0.012280
    0.018667    0.026009    0.029592    0.037689    0.039460    0.043873
 Highest eigenvalues
    0.761464    0.787890    0.791146    0.812785    0.815512    0.834996
 
cpu  time for ANC gen    0.01 s
wall time for ANC gen    0.01 s
................................................................................
.............................. CYCLE    1 ......................................
................................................................................
  q data taken from xtbrestart
  CAMM data taken from xtbrestart
   1    -20.2981080 -0.202981E+02  0.129E-08   13.02       0.0  T
   2    -20.2981080  0.106581E-13  0.774E-09   13.02  100000.0  T
   3    -20.2981080 -0.710543E-14  0.185E-09   13.02  100000.0  T
speedup  1.00
cpu  time for SCC    0.00 s
wall time for SCC    0.00 s
speedup  1.00
cpu  time for grad    0.00 s
wall time for grad    0.00 s
 E :    -19.99384483  G :  0.000069    pred/act E change:  0.000D+00 -0.331D-11
Maxdispl :   0.0014   ||displ|| :   0.0016   Lambda : -0.428D-07
Largest |displ|/coords:  0.0014 (   4)  0.0005 (   7)  0.0004 (   6)
ancopt converged in          1 cycles
total energy gain (kcal):      0.0000
================
 final structure:
================
    20
        -19.99384483
C          -2.86882407472477   -0.20140306832344   -0.01633968911589
H          -2.51660187352257   -1.23041886007278   -0.04334640247757
H          -2.50854202442575    0.30807247929035   -0.90714144645008
H          -3.95639310547271   -0.21239160776878   -0.04342242213682
C          -2.37292172428617    0.50003085116873    1.24216008659410
H          -2.71989438591340    1.53601826629875    1.24064938090134
C          -2.86323206560536   -0.19316932766392    2.51114907036511
H          -3.95589512756559   -0.21146915986144    2.51202100956947
H          -2.51682590514951   -1.22962934538448    2.51186543815977
C          -2.36939799475628    0.50461795858103    3.77587481977265
H          -1.27673007755936    0.52289652079816    3.77470156511449
H          -2.71574848760903    1.54110382665120    3.77480978319378
H          -1.28052472738087    0.51816304043154    1.24077732590187
C          -2.85907810389643   -0.18754671964515    5.04561939761700
H          -2.51249256471560   -1.22365461654912    5.04785503931393
H          -3.95147173556559   -0.20521743846416    5.04806240950297
C          -2.36156151101079    0.51513010149109    6.30282856779069
H          -2.72181193844795    0.00761396335263    7.19474579687584
H          -1.27394237709442    0.52487424647097    6.32905482153094
H          -2.71245397529784    1.54466005919881    6.32831150797640
 
 Bond Distances (Angstroems)
 ---------------------------
C1-H2=1.0880         C1-H3=1.0876         C1-H4=1.0880         C1-C5=1.5237         H2-C1=1.0880         H3-C1=1.0876         
H4-C1=1.0880         C5-C1=1.5237         C5-H6=1.0925         C5-C7=1.5268         C5-H13=1.0925        H6-C5=1.0925         
C7-C5=1.5268         C7-H8=1.0928         C7-H9=1.0928         C7-C10=1.5265        H8-C7=1.0928         H9-C7=1.0928         
C10-C7=1.5265        C10-H11=1.0928       C10-H12=1.0928       C10-C14=1.5268       H11-C10=1.0928       H12-C10=1.0928       
H13-C5=1.0925        C14-C10=1.5268       C14-H15=1.0925       C14-H16=1.0925       C14-C17=1.5238       H15-C14=1.0925       
H16-C14=1.0925       C17-C14=1.5238       C17-H18=1.0876       C17-H19=1.0880       C17-H20=1.0880       H18-C17=1.0876       
H19-C17=1.0880       H20-C17=1.0880       
 C  H  Rav=1.0906 sigma=0.0024  Rmin=1.0876  Rmax=1.0928    14
 C  C  Rav=1.5255 sigma=0.0015  Rmin=1.5237  Rmax=1.5268     5
 
 selected bond angles (degree)
 --------------------
H3-C1-H2=108.39                H4-C1-H2=108.27                H4-C1-H3=108.39                C5-C1-H2=110.52                
C5-C1-H3=110.67                C5-C1-H4=110.52                H6-C5-C1=109.39                C7-C5-C1=111.90                
C7-C5-H6=109.25                H13-C5-C1=109.39               H13-C5-H6=107.57               H13-C5-C7=109.25               
H8-C7-C5=109.23                H9-C7-C5=109.23                H9-C7-H8=107.52                C10-C7-C5=112.16               
C10-C7-H8=109.30               C10-C7-H9=109.30               H11-C10-C7=109.28              H12-C10-C7=109.28              
H12-C10-H11=107.52             C14-C10-C7=112.21              C14-C10-H11=109.22             C14-C10-H12=109.22             
 
 selected dihedral angles (degree)
 ---------------------------------
H6-C5-C1-H2=178.87            H6-C5-C1-H3= 58.79            H6-C5-C1-H4=298.71            C7-C5-C1-H2=300.08            
C7-C5-C1-H3=180.00            C7-C5-C1-H4= 59.91            H13-C5-C1-H2= 61.29           H13-C5-C1-H3=301.20           
H13-C5-C1-H4=181.12           H8-C7-C5-C1=301.31            H8-C7-C5-H6= 62.60            H8-C7-C5-H13=180.02           
H9-C7-C5-C1= 58.66            H9-C7-C5-H6=179.95            H9-C7-C5-H13=297.37           C10-C7-C5-C1=179.98           
C10-C7-C5-H6=301.27           C10-C7-C5-H13= 58.69          H11-C10-C7-C5=301.30          H11-C10-C7-H8=180.01          
H11-C10-C7-H9= 62.58          H12-C10-C7-C5= 58.70          H12-C10-C7-H8=297.41          H12-C10-C7-H9=179.99          
C14-C10-C7-C5=180.00          C14-C10-C7-H8= 58.71          C14-C10-C7-H9=301.29          
 
             =======================================
             |                                     |
             |        S C C  calculation           |
             |                                     |
             =======================================
 #proc     :            2
 Ncao      :           38
 Nao       :           38
 Nel       :           38
 T(el)     :   300.0
 intcut    :    25.0
 scfconv   :  0.100E-05
   qconv   :  0.100E-03
 intneglect:  0.100E-07
 broydamp  :      0.400
 Nshell    :           26
 iter      E             dE          RMSdq      gap      omega  full diag
   1    -20.2981080 -0.202981E+02  0.110E-08   13.02       0.0  T
   2    -20.2981080  0.710543E-14  0.647E-09   13.02  100000.0  T
   3    -20.2981080  0.106581E-13  0.242E-10   13.02  100000.0  T
speedup  1.00
cpu  time for SCC    0.00 s
wall time for SCC    0.00 s

          eigenvalues
 #    :           7          8          9         10         11         12         13         14
 occ. :        2.000      2.000      2.000      2.000      2.000      2.000      2.000      2.000
 eps  :       -14.143    -13.615    -13.554    -13.322    -12.819    -12.664    -12.586    -12.032
 #    :          15         16         17         18         19         20         21         22
 occ. :        2.000      2.000      2.000      2.000      2.000      0.000      0.000      0.000
 eps  :       -11.939    -11.674    -11.528    -11.429    -11.349      1.669      3.086      3.181
 #    :          23         24         25         26         27         28         29         30
 occ. :        0.000      0.000      0.000      0.000      0.000      0.000      0.000      0.000
 eps  :         3.558      4.078      4.264      4.271      4.523      4.961      5.005      5.312
 

   #   Z            q   n(s)   n(p)   n(d)      C6AA      α(0)    relVol
   1   6 C     -0.102  1.037  3.065  0.000    22.646     6.807     0.551
   2   1 H      0.033  0.967  0.000  0.000     2.539     2.492     0.493
   3   1 H      0.032  0.968  0.000  0.000     2.547     2.496     0.494
   4   1 H      0.033  0.967  0.000  0.000     2.539     2.492     0.493
   5   6 C     -0.053  1.048  3.005  0.000    21.604     6.629     0.537
   6   1 H      0.028  0.972  0.000  0.000     2.606     2.524     0.499
   7   6 C     -0.059  1.052  3.007  0.000    21.684     6.635     0.537
   8   1 H      0.029  0.971  0.000  0.000     2.595     2.519     0.498
   9   1 H      0.029  0.971  0.000  0.000     2.595     2.519     0.498
  10   6 C     -0.059  1.052  3.007  0.000    21.684     6.635     0.537
  11   1 H      0.029  0.971  0.000  0.000     2.595     2.519     0.498
  12   1 H      0.029  0.971  0.000  0.000     2.595     2.519     0.498
  13   1 H      0.028  0.972  0.000  0.000     2.606     2.524     0.499
  14   6 C     -0.053  1.048  3.005  0.000    21.604     6.629     0.537
  15   1 H      0.028  0.972  0.000  0.000     2.606     2.524     0.499
  16   1 H      0.028  0.972  0.000  0.000     2.606     2.524     0.499
  17   6 C     -0.102  1.037  3.065  0.000    22.646     6.807     0.551
  18   1 H      0.032  0.968  0.000  0.000     2.547     2.496     0.494
  19   1 H      0.033  0.967  0.000  0.000     2.539     2.492     0.493
  20   1 H      0.033  0.967  0.000  0.000     2.539     2.492     0.493

 Mol. C6AA /au*bohr^6 :       2551.795913
 Mol. C8AA /au*bohr^6 :      52465.703569
 Mol. a(0) /au        :         75.269494

 
 Wiberg/Mayer (AO) data. WBOs > 0.1 written file <wbo>
 largest (>0.05) Wiberg bond orders for each atom
           total WBO             WBO to atom ...
     1  C   3.997    C    5 1.019    H    4 0.988    H    2 0.988    H    3 0.988
     2  H   0.999    C    1 0.988
     3  H   0.999    C    1 0.988
     4  H   0.999    C    1 0.988
     5  C   3.998    C    1 1.019    C    7 1.008    H    6 0.979    H   13 0.979
     6  H   0.999    C    5 0.979
     7  C   3.997    C    5 1.008    C   10 1.007    H    8 0.978    H    9 0.978
     8  H   0.999    C    7 0.978
     9  H   0.999    C    7 0.978
    10  C   3.997    C   14 1.008    C    7 1.007    H   11 0.978    H   12 0.978
    11  H   0.999    C   10 0.978
    12  H   0.999    C   10 0.978
    13  H   0.999    C    5 0.979
    14  C   3.998    C   17 1.019    C   10 1.008    H   16 0.979    H   15 0.979
    15  H   0.999    C   14 0.979
    16  H   0.999    C   14 0.979
    17  C   3.997    C   14 1.019    H   19 0.988    H   20 0.988    H   18 0.988
    18  H   0.999    C   17 0.988
    19  H   0.999    C   17 0.988
    20  H   0.999    C   17 0.988
 
molecular dipole:
                 x           y           z       tot (Debye)
 q only:        0.000       0.000      -0.000
   full:        0.000       0.000      -0.000       0.000
molecular quadrupole (traceless):
                xx          xy          yy          xz          yz          zz
 q only:       -0.218       0.145      -0.114       0.073       0.103       0.332
  q+dip:        1.042      -0.736       0.525      -0.230      -0.326      -1.567
   full:        0.439      -0.332       0.207      -0.088      -0.125      -0.647
 SCC converged in            3  cycles
 
SCC energy    :     -20.2981080
rep           :       0.3042833
ES            :       0.0039003
AES           :       0.0068096
AXC           :       0.0127362
disp          :      -0.0104112
XB            :       0.0000000
fix           :       0.0000000
total E       :     -19.9938448
atomizationE  :       4.7478153     2979.30
(atE without considerung molecular charge,
 total energy contains solvation terms)
H-L gap (eV)  :         13.0175
 !!!!!!!!!!!!!!!!!!!!!!!!!!!!!!!!!!!
 ! Note: the input coordinates are !
 ! NOT overwritten. The optimized  !
 ! ones are on file <xtbopt.coord> !
 ! (or on <xtbopt.xyz> if it was a !
 ! xyz file)                       !
 !!!!!!!!!!!!!!!!!!!!!!!!!!!!!!!!!!!
 
Refinement of some symmetry elements was terminated before convergence was reached.
Some symmetry elements may remain unidentified.
Molecule has the following symmetry elements: (i) (C2) (sigma) 
It seems to be the C2h point group
c2h symmetry found (for desy threshold:  0.10E+00) used in thermo
  q data taken from xtbrestart
  CAMM data taken from xtbrestart
 
             =======================================
             |                                     |
             |         Numerical Hessian           |
             |                                     |
             =======================================
step length          :   0.00500
SCC accuracy         :   0.30000
Hessian scale factor :   1.00000
frozen atoms in %    :   0.00000    0
RMS gradient         :   0.00007
estimated CPU  time      0.02 min
estimated wall time      0.02 min
 
 writing file <hessian>.
 
 projected vibrational frequencies (cm-1)
eig.   :       -0.00    -0.00    -0.00     0.00     0.00     0.00
eig.   :       68.41    94.29   135.20   135.91   228.39   237.96
eig.   :      301.64   370.81   465.28   769.83   786.80   843.08
eig.   :      926.38   940.10   942.19  1004.42  1074.76  1080.39
eig.   :     1108.89  1118.79  1150.17  1200.23  1230.35  1261.17
eig.   :     1268.83  1284.32  1293.25  1319.92  1364.54  1380.03
eig.   :     1416.33  1416.39  1496.35  1497.04  1500.61  1503.18
eig.   :     1505.04  1505.07  1508.09  1508.36  2953.27  2958.30
eig.   :     2966.49  2973.08  2973.37  2975.45  2979.28  2985.98
eig.   :     3028.93  3029.41  3031.28  3031.79  3036.58  3037.04
 reduced masses (amu)
   1: 10.08   2:  5.58   3:  9.95   4:  9.47   5:  9.85   6:  9.47   7:  7.88   8:  5.50
   9:  8.72  10:  7.12  11:  1.84  12:  2.38  13:  8.54  14:  9.56  15:  8.59  16:  1.63
  17:  1.99  18:  2.45  19:  2.50  20:  5.40  21:  6.66  22:  1.87  23: 10.10  24:  7.54
  25:  7.65  26:  8.03  27:  8.21  28:  6.49  29:  4.56  30:  3.58  31:  2.54  32:  1.95
  33:  2.14  34:  3.90  35:  4.70  36:  5.70  37:  3.15  38:  3.21  39:  1.91  40:  1.85
  41:  1.98  42:  1.80  43:  1.53  44:  1.53  45:  1.68  46:  1.63  47:  1.90  48:  1.95
  49:  2.01  50:  1.45  51:  1.47  52:  2.05  53:  1.48  54:  1.52  55:  1.96  56:  1.96
  57:  1.91  58:  1.92  59:  1.27  60:  1.28
 IR intensities (amu)
   1:  0.21   2:  0.02   3:  0.13   4:  0.08   5:  0.23   6:  0.16   7:  0.07   8:  0.01
   9:  0.03  10:  0.00  11:  0.00  12:  0.01  13:  0.00  14:  0.00  15:  0.04  16:  0.05
  17:  0.00  18:  0.04  19:  0.00  20:  0.00  21:  0.05  22:  0.03  23:  0.00  24:  0.10
  25:  0.00  26:  0.11  27:  0.00  28:  0.00  29:  0.05  30:  0.06  31:  0.00  32:  0.00
  33:  0.00  34:  0.00  35:  0.08  36:  0.00  37:  0.01  38:  0.05  39:  0.00  40:  0.03
  41:  0.08  42:  0.00  43:  0.03  44:  0.01  45:  0.03  46:  0.00  47:  0.00  48:  0.03
  49:  0.00  50:  0.00  51:  0.02  52:  0.54  53:  0.00  54:  0.44  55:  0.08  56:  0.40
  57:  0.01  58:  0.39  59:  0.26  60:  0.01
 output can be read by thermo (or use thermo option).
 writing <g98.out> molden fake output.
 recommended (thermochemical) frequency scaling factor: 1.0
                    ==================
                    thermo calculation
                    ==================
Nvib :   54 Nimag : 0  symmetry :  c2h  rot number :  2  scale factor : 1.00 sthr :  50.
omega= 68.41     Gvib=    -1.252     Grot=    -0.963     Gused=    -1.188
omega= 94.29     Gvib=    -1.064     Grot=    -0.868     Gused=    -1.050
omega=135.20     Gvib=    -0.856     Grot=    -0.762     Gused=    -0.854
omega=135.91     Gvib=    -0.853     Grot=    -0.760     Gused=    -0.851
omega=228.39     Gvib=    -0.564     Grot=    -0.606     Gused=    -0.564
omega=237.96     Gvib=    -0.542     Grot=    -0.594     Gused=    -0.542
 
   temp. (K)  partition function   enthalpy   heat capacity  entropy
                                   cal/mol     cal/K/mol   cal/K/mol   J/K/mol
 298.15  VIB   189.                 3518.156     23.130     21.949
         ROT  0.100E+06              888.752      2.981     25.868
         INT  0.190E+08             4406.908     26.111     47.816
         TR   0.774E+27             1481.254      4.968     39.257
         TOT                        5888.1620    31.0787    87.0730   364.3122
                     Eh         kcal/mol          kJ/mol 
ZPVE            0.187272         117.515         491.682    
H(0)-H(T)+PV    0.938338E-02     5.88816         24.6360    
H(T)            0.196656         123.403         516.318    
T*S             0.413712E-01     25.9608         108.620    
G(T)            0.155285         97.4425         407.698    
    -19.83856032  <=== TOTAL FREE ENERGY in Eh incl. el.,ZPVE,RRHO,solv. parts
 
Eat (element increment corrected) /kcal :  2248.916
        -370.745  <=== HOF(298)/kcal, to be compared to exptl. data
 
 normal mode %tage of torsion character
   1:  0.00   2:  0.00   3:  0.00   4:  0.00   5:  0.00   6:  0.00   7:  0.38   8:  0.65
   9:  0.32  10:  0.65  11:  0.88  12:  0.86  13:  0.21  14:  0.12  15:  0.08  16:  0.56
  17:  0.48  18:  0.52  19:  0.48  20:  0.15  21:  0.21  22:  0.32  23:  0.11  24:  0.21
  25:  0.04  26:  0.07  27:  0.13  28:  0.53  29:  0.34  30:  0.12  31:  0.24  32:  0.09
  33:  0.12  34:  0.11  35:  0.08  36:  0.06  37:  0.34  38:  0.18  39:  0.60  40:  0.61
  41:  0.58  42:  0.58  43:  0.65  44:  0.35  45:  0.32  46:  0.38  47:  0.35  48:  0.28
  49:  0.11  50:  0.01  51:  0.01  52:  0.01  53:  0.01  54:  0.01  55:  0.07  56:  0.09
  57:  0.08  58:  0.08  59:  0.01  60:  0.01
 recommended # of modes for mode following           4
 
speedup  0.99
cpu  time for all    1.19 s
wall time for all    1.20 s
