 Entering Gaussian System
 *********************************************
 Gaussian 98:
 frequency output generated by the xtb code
 *********************************************
                         Standard orientation:
 --------------------------------------------------------------------
  Center     Atomic     Atomic              Coordinates (Angstroms)
  Number     Number      Type              X           Y           Z
 --------------------------------------------------------------------
    1          8             0        0.256837   -0.524715    2.106725
    2          6             0       -0.152974    0.821863    2.137363
    3          1             0       -1.245024    0.792362    2.121635
    4          1             0        0.189855    1.348022    1.233256
    5          6             0        0.336781    1.564493    3.381011
    6          1             0        1.431172    1.559583    3.393926
    7          1             0       -0.009438    1.030656    4.268584
    8          1             0        1.218486   -0.556360    2.164015
    9          6             0       -0.164122    3.005582    3.416729
   10          1             0       -1.255931    3.006667    3.402326
   11          1             0        0.178822    3.528353    2.520774
   12          6             0        0.328463    3.743923    4.655515
   13          1             0       -0.038571    4.767389    4.660971
   14          1             0       -0.021421    3.248656    5.558379
   15          1             0        1.415762    3.769317    4.678631
 --------------------------------------------------------------------
     1 basis functions        1 primitive gaussians
     1 alpha electrons        1 beta electrons
 
 Harmonic frequencies (cm**-1), IR intensities (KM/Mole),
 Raman scattering activities (A**4/amu), Raman depolarization ratios,
 reduced masses (AMU), force constants (mDyne/A) and normal coordinates:
                      1                      2                      3
                        a                      a                      a 
 Frequencies --   100.2460               104.6369               187.4714
 Red. masses --     9.1898                 6.1900                 9.9400
 Frc consts  --     0.0000                 0.0000                 0.0000
 IR Inten    --     0.2598                 0.1539                 0.2794
 Raman Activ --     0.0000                 0.0000                 0.0000
 Depolar     --     0.0000                 0.0000                 0.0000
 Atom AN      X      Y      Z        X      Y      Z        X      Y      Z
   1   8    -0.33  -0.10   0.23     0.22   0.05  -0.11    -0.25  -0.02  -0.40
   2   6     0.06   0.02  -0.04    -0.37  -0.14   0.23     0.11   0.06   0.20
   3   1     0.01   0.08   0.06    -0.11  -0.17   0.24     0.03   0.08   0.08
   4   1    -0.01  -0.08  -0.07    -0.32   0.02   0.02     0.03   0.08   0.09
   5   6     0.49   0.18  -0.30     0.00   0.00   0.00     0.27  -0.20   0.31
   6   1     0.14   0.13  -0.23     0.00  -0.06  -0.06     0.08  -0.05   0.09
   7   1     0.29   0.03  -0.04     0.02   0.07   0.05     0.07  -0.06   0.09
   8   1    -0.08  -0.09  -0.01     0.07   0.13  -0.20    -0.06  -0.08  -0.19
   9   6     0.10   0.04  -0.07     0.31   0.11  -0.19     0.13  -0.23   0.08
  10   1     0.03  -0.08  -0.06     0.09   0.10  -0.21     0.04  -0.12  -0.01
  11   1     0.02   0.10   0.03     0.25   0.02  -0.00     0.03  -0.12  -0.01
  12   6    -0.29  -0.11   0.18    -0.14  -0.05   0.08    -0.21   0.34  -0.13
  13   1    -0.16  -0.06   0.10     0.08   0.03  -0.05    -0.14   0.07  -0.18
  14   1    -0.09  -0.12   0.00    -0.26   0.04  -0.03    -0.06   0.18   0.01
  15   1    -0.09   0.05   0.11    -0.04  -0.14   0.22    -0.06   0.18   0.00
                      4                      5                      6
                        a                      a                      a 
 Frequencies --   234.3674               348.2464               394.0032
 Red. masses --     2.1463                 2.5534                 9.9421
 Frc consts  --     0.0000                 0.0000                 0.0000
 IR Inten    --     0.0242                 0.5059                 0.1737
 Raman Activ --     0.0000                 0.0000                 0.0000
 Depolar     --     0.0000                 0.0000                 0.0000
 Atom AN      X      Y      Z        X      Y      Z        X      Y      Z
   1   8     0.03   0.00  -0.02     0.04   0.12  -0.20     0.07  -0.33  -0.09
   2   6    -0.08  -0.03   0.05    -0.16   0.03   0.04    -0.08  -0.26  -0.28
   3   1    -0.02  -0.03   0.02    -0.05  -0.02   0.05    -0.02  -0.11  -0.10
   4   1    -0.03   0.01   0.02    -0.09   0.04   0.01    -0.02  -0.11  -0.10
   5   6    -0.11  -0.04   0.07     0.09  -0.08  -0.03    -0.12  -0.04  -0.23
   6   1    -0.03  -0.09   0.08     0.03  -0.02  -0.09    -0.03  -0.05  -0.09
   7   1    -0.12   0.04   0.01     0.09  -0.02   0.02    -0.03  -0.05  -0.08
   8   1     0.01   0.02  -0.02    -0.04   0.05   0.91     0.01  -0.06   0.02
   9   6     0.22   0.08  -0.13     0.08  -0.10   0.01     0.14   0.14   0.31
  10   1     0.06   0.08  -0.13     0.02  -0.04  -0.01     0.04   0.07   0.10
  11   1     0.16   0.01  -0.01     0.02  -0.03  -0.00     0.03   0.07   0.10
  12   6    -0.04  -0.01   0.02    -0.03   0.01  -0.03     0.01   0.45   0.29
  13   1    -0.45  -0.16   0.28    -0.03  -0.01  -0.04    -0.06   0.11  -0.04
  14   1     0.37  -0.33  -0.03    -0.01   0.02  -0.00    -0.00   0.20   0.12
  15   1    -0.02   0.46  -0.19    -0.01   0.03   0.01     0.00   0.20   0.12
                      7                      8                      9
                        a                      a                      a 
 Frequencies --   440.5573               777.7856               833.5116
 Red. masses --    10.8647                 1.7283                 2.3505
 Frc consts  --     0.0000                 0.0000                 0.0000
 IR Inten    --     0.5247                 0.0377                 0.0769
 Raman Activ --     0.0000                 0.0000                 0.0000
 Depolar     --     0.0000                 0.0000                 0.0000
 Atom AN      X      Y      Z        X      Y      Z        X      Y      Z
   1   8     0.06   0.38   0.44    -0.02  -0.00   0.00     0.05  -0.01  -0.02
   2   6    -0.19   0.21  -0.27     0.05   0.02  -0.03    -0.17  -0.06   0.09
   3   1    -0.05   0.05  -0.08     0.01  -0.02   0.23    -0.04   0.06  -0.37
   4   1    -0.04   0.03  -0.09    -0.19  -0.04  -0.11     0.31   0.05   0.19
   5   6     0.01  -0.30  -0.13     0.14   0.05  -0.09    -0.12  -0.04   0.09
   6   1     0.00  -0.17  -0.06     0.03  -0.26   0.36    -0.02  -0.04  -0.29
   7   1    -0.02  -0.18  -0.10    -0.40   0.12  -0.13     0.21   0.11   0.19
   8   1     0.03   0.19  -0.12    -0.01  -0.03   0.04     0.02   0.10  -0.05
   9   6     0.19  -0.35   0.11     0.14   0.05  -0.09     0.18   0.06  -0.11
  10   1     0.05  -0.11   0.01     0.03  -0.25   0.34     0.04  -0.05   0.32
  11   1     0.05  -0.12   0.02    -0.39   0.12  -0.12    -0.27  -0.04  -0.17
  12   6    -0.05   0.04  -0.06     0.02   0.01  -0.01     0.07   0.03  -0.05
  13   1    -0.08  -0.01  -0.15    -0.05  -0.02   0.03    -0.10  -0.04   0.06
  14   1    -0.02   0.09   0.02    -0.14  -0.08  -0.10    -0.19  -0.16  -0.18
  15   1    -0.02   0.09   0.02    -0.00   0.03   0.19     0.01   0.09   0.29
                     10                     11                     12
                        a                      a                      a 
 Frequencies --   943.0191               948.0894              1025.7519
 Red. masses --     5.5772                 2.6821                10.3459
 Frc consts  --     0.0000                 0.0000                 0.0000
 IR Inten    --     0.1116                 0.1302                 0.6424
 Raman Activ --     0.0000                 0.0000                 0.0000
 Depolar     --     0.0000                 0.0000                 0.0000
 Atom AN      X      Y      Z        X      Y      Z        X      Y      Z
   1   8    -0.02   0.03  -0.03     0.04  -0.05  -0.04     0.11  -0.40  -0.01
   2   6     0.15   0.03   0.15    -0.19  -0.05   0.13    -0.32   0.21  -0.33
   3   1     0.04  -0.05   0.09    -0.04   0.09  -0.25    -0.08   0.17  -0.06
   4   1    -0.04   0.02   0.01     0.23  -0.01   0.14    -0.03  -0.09  -0.14
   5   6    -0.26   0.28  -0.16     0.10   0.14  -0.10     0.18   0.27   0.36
   6   1    -0.07   0.21  -0.02     0.02  -0.27   0.01     0.04   0.15   0.18
   7   1    -0.02   0.08  -0.02    -0.14   0.34   0.09     0.01  -0.01   0.03
   8   1    -0.01  -0.12  -0.01     0.01   0.14  -0.02     0.03   0.21   0.02
   9   6     0.14  -0.17   0.14     0.08  -0.03   0.01     0.07   0.04   0.22
  10   1     0.03   0.15   0.14     0.02  -0.28  -0.09     0.02   0.06   0.05
  11   1     0.04   0.02   0.08    -0.03   0.31   0.17     0.07  -0.07   0.03
  12   6     0.10  -0.32  -0.11    -0.13  -0.15   0.06    -0.05  -0.13  -0.23
  13   1    -0.26  -0.18  -0.47     0.05  -0.01  -0.20    -0.05  -0.05  -0.07
  14   1    -0.07   0.16   0.06     0.18   0.22   0.23    -0.05  -0.06  -0.09
  15   1     0.01   0.24   0.16    -0.02  -0.06  -0.28    -0.02  -0.02  -0.01
                     13                     14                     15
                        a                      a                      a 
 Frequencies --  1082.8566              1095.3474              1110.3881
 Red. masses --     5.3450                 9.5462                 8.5888
 Frc consts  --     0.0000                 0.0000                 0.0000
 IR Inten    --     0.3777                 0.8486                 0.5203
 Raman Activ --     0.0000                 0.0000                 0.0000
 Depolar     --     0.0000                 0.0000                 0.0000
 Atom AN      X      Y      Z        X      Y      Z        X      Y      Z
   1   8     0.03  -0.13  -0.05    -0.15   0.35   0.01     0.11  -0.28   0.04
   2   6    -0.09   0.01   0.19     0.02  -0.48  -0.35    -0.07   0.43  -0.09
   3   1    -0.03   0.42   0.07    -0.00  -0.21  -0.10    -0.01  -0.12  -0.01
   4   1     0.15  -0.16   0.02    -0.05  -0.09  -0.10    -0.12   0.18  -0.01
   5   6     0.09  -0.09  -0.17     0.10   0.18   0.30    -0.14   0.19   0.07
   6   1     0.02   0.15   0.18     0.03   0.19   0.16    -0.04   0.03  -0.10
   7   1    -0.09  -0.07  -0.12     0.04   0.21   0.18     0.02   0.14   0.09
   8   1     0.02   0.41   0.00    -0.03   0.11   0.01     0.02  -0.29  -0.00
   9   6    -0.25  -0.12  -0.29    -0.05  -0.15  -0.18     0.00  -0.32  -0.30
  10   1    -0.06   0.12  -0.08    -0.01  -0.08  -0.06     0.00  -0.26  -0.13
  11   1     0.01  -0.08  -0.08    -0.01  -0.08  -0.07    -0.05  -0.15  -0.14
  12   6     0.21   0.05   0.26     0.11  -0.00   0.17     0.10   0.12   0.29
  13   1    -0.06  -0.02  -0.06    -0.02  -0.02  -0.05     0.04   0.03   0.06
  14   1    -0.01   0.10   0.09     0.02   0.08   0.09     0.06   0.07   0.11
  15   1     0.05   0.16   0.20     0.03   0.08   0.08     0.03   0.04   0.06
                     16                     17                     18
                        a                      a                      a 
 Frequencies --  1134.0687              1211.7747              1253.3640
 Red. masses --     7.4771                 5.3996                 3.6062
 Frc consts  --     0.0000                 0.0000                 0.0000
 IR Inten    --     0.2733                 0.1111                 0.1686
 Raman Activ --     0.0000                 0.0000                 0.0000
 Depolar     --     0.0000                 0.0000                 0.0000
 Atom AN      X      Y      Z        X      Y      Z        X      Y      Z
   1   8     0.03  -0.07   0.07     0.03   0.04   0.01     0.03   0.10  -0.04
   2   6    -0.03   0.15  -0.20    -0.16   0.02   0.07    -0.20  -0.00   0.19
   3   1    -0.00  -0.08   0.03    -0.03  -0.22  -0.24    -0.04  -0.24  -0.30
   4   1    -0.10   0.18   0.01     0.06   0.10   0.11     0.10  -0.16   0.01
   5   6     0.16  -0.40   0.22     0.29   0.09  -0.10     0.15   0.18   0.07
   6   1     0.04  -0.12  -0.04     0.06  -0.23   0.09     0.04   0.01   0.10
   7   1     0.11  -0.04   0.12    -0.15   0.10  -0.06    -0.06  -0.47  -0.33
   8   1     0.00  -0.12   0.01    -0.00  -0.22  -0.01    -0.00  -0.23  -0.01
   9   6    -0.19   0.36  -0.24    -0.37  -0.08   0.18     0.07   0.18  -0.11
  10   1    -0.05   0.18   0.06    -0.09   0.04  -0.26     0.02   0.01   0.08
  11   1    -0.10   0.29   0.04     0.19  -0.00   0.16    -0.07  -0.23  -0.23
  12   6     0.08  -0.19   0.09     0.26   0.06  -0.13    -0.08  -0.12   0.13
  13   1    -0.11  -0.09  -0.26    -0.12  -0.05   0.03     0.02  -0.01  -0.13
  14   1     0.01   0.18   0.14    -0.17  -0.11  -0.18     0.07   0.10   0.13
  15   1     0.01   0.16   0.05     0.05   0.11   0.28    -0.02   0.01  -0.12
                     19                     20                     21
                        a                      a                      a 
 Frequencies --  1274.5703              1280.8609              1321.4375
 Red. masses --     2.1380                 2.6431                 3.3444
 Frc consts  --     0.0000                 0.0000                 0.0000
 IR Inten    --     0.0549                 0.0842                 0.3069
 Raman Activ --     0.0000                 0.0000                 0.0000
 Depolar     --     0.0000                 0.0000                 0.0000
 Atom AN      X      Y      Z        X      Y      Z        X      Y      Z
   1   8    -0.04  -0.02  -0.02     0.01   0.05  -0.06     0.17   0.19  -0.04
   2   6     0.04  -0.01   0.04     0.14   0.04   0.02    -0.22   0.05   0.05
   3   1     0.01  -0.05  -0.01     0.03   0.15   0.14    -0.07   0.25  -0.01
   4   1    -0.01  -0.04  -0.01    -0.03  -0.45  -0.28     0.08  -0.48  -0.21
   5   6    -0.18   0.02   0.14    -0.09   0.14   0.17    -0.01  -0.13   0.06
   6   1    -0.04   0.20  -0.01    -0.02  -0.52  -0.36    -0.01   0.18   0.06
   7   1     0.08  -0.39  -0.15     0.06   0.01   0.06     0.02   0.08   0.09
   8   1    -0.01   0.12   0.01     0.00   0.02   0.00     0.02  -0.52  -0.02
   9   6     0.05   0.09  -0.03    -0.14   0.15   0.07     0.03  -0.17  -0.09
  10   1     0.01  -0.56  -0.28    -0.03  -0.14  -0.15     0.01   0.10   0.08
  11   1    -0.04   0.41   0.20     0.03  -0.21  -0.10    -0.01   0.29   0.17
  12   6     0.16   0.02  -0.07     0.09  -0.07   0.03    -0.02   0.06  -0.05
  13   1    -0.05  -0.03  -0.02    -0.08  -0.05  -0.09     0.04   0.03   0.09
  14   1    -0.08  -0.05  -0.10    -0.05   0.03   0.00     0.02  -0.01  -0.02
  15   1     0.04   0.06   0.13     0.02   0.06   0.04    -0.00  -0.01   0.04
                     22                     23                     24
                        a                      a                      a 
 Frequencies --  1351.6805              1370.3902              1416.3455
 Red. masses --     3.7921                 5.1855                 3.1698
 Frc consts  --     0.0000                 0.0000                 0.0000
 IR Inten    --     0.4014                 0.3373                 0.0307
 Raman Activ --     0.0000                 0.0000                 0.0000
 Depolar     --     0.0000                 0.0000                 0.0000
 Atom AN      X      Y      Z        X      Y      Z        X      Y      Z
   1   8     0.13   0.09   0.04    -0.03  -0.01  -0.02    -0.00   0.00  -0.00
   2   6    -0.15  -0.28  -0.15     0.01   0.23   0.12    -0.00   0.02   0.00
   3   1    -0.06   0.50   0.18     0.01  -0.25  -0.12     0.00  -0.03  -0.01
   4   1     0.03   0.29   0.19     0.01  -0.25  -0.14     0.00  -0.03  -0.02
   5   6    -0.03  -0.01  -0.07    -0.01  -0.37  -0.20     0.01  -0.00   0.02
   6   1    -0.01   0.07   0.08    -0.00   0.32   0.19     0.00   0.00   0.01
   7   1     0.02   0.00  -0.00     0.01   0.31   0.19     0.01   0.00   0.01
   8   1     0.02  -0.37  -0.01    -0.00   0.05  -0.01    -0.00   0.00   0.00
   9   6     0.01   0.24   0.14     0.02   0.29   0.20     0.00  -0.08  -0.04
  10   1     0.00  -0.27  -0.17     0.01  -0.25  -0.17    -0.00   0.09   0.00
  11   1    -0.02  -0.24  -0.15    -0.03  -0.25  -0.15    -0.05   0.08   0.03
  12   6     0.05  -0.06   0.04     0.03  -0.06   0.01     0.12   0.23   0.34
  13   1    -0.05  -0.04  -0.11    -0.03  -0.03  -0.07    -0.24  -0.06  -0.44
  14   1    -0.05  -0.01  -0.01    -0.05   0.01  -0.01    -0.21  -0.38  -0.28
  15   1     0.01   0.02  -0.05     0.00   0.02  -0.04     0.03  -0.29  -0.42
                     25                     26                     27
                        a                      a                      a 
 Frequencies --  1483.9649              1493.7581              1498.5105
 Red. masses --     1.8494                 1.9681                 1.7966
 Frc consts  --     0.0000                 0.0000                 0.0000
 IR Inten    --     0.0966                 0.0628                 0.0549
 Raman Activ --     0.0000                 0.0000                 0.0000
 Depolar     --     0.0000                 0.0000                 0.0000
 Atom AN      X      Y      Z        X      Y      Z        X      Y      Z
   1   8    -0.01   0.02  -0.01     0.00  -0.01  -0.00    -0.00   0.01  -0.00
   2   6    -0.16   0.08  -0.19    -0.01   0.03   0.01    -0.03   0.01  -0.04
   3   1    -0.01  -0.32   0.58    -0.00  -0.02  -0.01    -0.00  -0.06   0.12
   4   1     0.64  -0.10   0.18     0.00  -0.02  -0.01     0.12  -0.01   0.04
   5   6    -0.01   0.03  -0.01    -0.16   0.12  -0.20     0.03  -0.04   0.03
   6   1    -0.00  -0.03   0.02    -0.02  -0.32   0.56     0.00   0.10  -0.14
   7   1     0.03  -0.02  -0.01     0.62  -0.10   0.17    -0.17   0.04  -0.04
   8   1    -0.00   0.01  -0.00    -0.00  -0.00   0.00    -0.00   0.00  -0.00
   9   6     0.03  -0.02   0.03    -0.04  -0.01  -0.07    -0.15   0.11  -0.18
  10   1     0.00   0.06  -0.10    -0.00  -0.05   0.14    -0.01  -0.32   0.54
  11   1    -0.11   0.02  -0.03     0.14  -0.00   0.05     0.60  -0.10   0.16
  12   6    -0.01   0.00  -0.01     0.02  -0.02   0.02     0.03  -0.02   0.04
  13   1    -0.00  -0.00  -0.01     0.04   0.01   0.05     0.02   0.01   0.03
  14   1     0.04  -0.00   0.01    -0.12   0.04  -0.02    -0.15   0.02  -0.05
  15   1    -0.00  -0.02   0.03     0.00   0.09  -0.09     0.00   0.08  -0.14
                     28                     29                     30
                        a                      a                      a 
 Frequencies --  1503.8361              1506.1067              2861.6989
 Red. masses --     1.5294                 1.6640                 1.7311
 Frc consts  --     0.0000                 0.0000                 0.0000
 IR Inten    --     0.0325                 0.0104                 0.3597
 Raman Activ --     0.0000                 0.0000                 0.0000
 Depolar     --     0.0000                 0.0000                 0.0000
 Atom AN      X      Y      Z        X      Y      Z        X      Y      Z
   1   8    -0.00  -0.00  -0.00    -0.00  -0.00  -0.00     0.00  -0.02   0.00
   2   6     0.00   0.00  -0.00     0.00  -0.01  -0.00    -0.11  -0.11   0.21
   3   1     0.00   0.00   0.00     0.00   0.00   0.01     0.06  -0.01   0.04
   4   1    -0.00  -0.00  -0.00     0.01   0.00   0.00     0.31   0.45  -0.79
   5   6     0.00   0.00   0.00     0.02   0.01   0.03     0.01   0.00  -0.00
   6   1    -0.00  -0.02  -0.01     0.00   0.04  -0.09    -0.02   0.00  -0.00
   7   1    -0.00   0.02   0.01    -0.09   0.01  -0.03    -0.01  -0.02   0.05
   8   1     0.00   0.00   0.00    -0.00   0.00  -0.00     0.00   0.00  -0.00
   9   6    -0.04  -0.01   0.03     0.07  -0.09   0.05     0.00   0.00  -0.01
  10   1    -0.01  -0.00  -0.03     0.01   0.12  -0.13     0.01  -0.00  -0.00
  11   1     0.00   0.01   0.02    -0.17   0.05  -0.02    -0.01  -0.01   0.02
  12   6    -0.18  -0.06   0.10     0.10  -0.17   0.07    -0.00   0.00  -0.00
  13   1     0.58   0.21  -0.36     0.16   0.04   0.27     0.00  -0.00  -0.00
  14   1     0.16  -0.42  -0.15    -0.57   0.21  -0.10    -0.00  -0.00   0.00
  15   1    -0.02   0.46   0.09     0.01   0.42  -0.45    -0.00  -0.00  -0.00
                     31                     32                     33
                        a                      a                      a 
 Frequencies --  2948.2339              2969.3225              2980.0433
 Red. masses --     1.8018                 1.8695                 1.6417
 Frc consts  --     0.0000                 0.0000                 0.0000
 IR Inten    --     0.1737                 0.2209                 0.1511
 Raman Activ --     0.0000                 0.0000                 0.0000
 Depolar     --     0.0000                 0.0000                 0.0000
 Atom AN      X      Y      Z        X      Y      Z        X      Y      Z
   1   8    -0.00   0.00  -0.00     0.00  -0.00   0.00     0.00  -0.01  -0.00
   2   6    -0.03   0.00  -0.01     0.03   0.00   0.00     0.21   0.00   0.01
   3   1     0.16   0.01   0.00    -0.12  -0.00   0.00    -0.81  -0.03   0.00
   4   1    -0.02  -0.02   0.03     0.01   0.01  -0.02     0.05   0.03  -0.04
   5   6     0.25   0.03  -0.04    -0.05   0.02  -0.04     0.03  -0.02   0.03
   6   1    -0.90  -0.00  -0.01     0.23   0.01  -0.01    -0.15  -0.00   0.01
   7   1    -0.03  -0.09   0.16    -0.08  -0.11   0.18     0.05   0.07  -0.12
   8   1    -0.00   0.00   0.00     0.00  -0.00  -0.00     0.01   0.00   0.00
   9   6    -0.05  -0.02   0.03    -0.18  -0.10   0.17    -0.08   0.03  -0.05
  10   1     0.17  -0.00   0.01     0.41  -0.01   0.03     0.40   0.01  -0.01
  11   1     0.04   0.07  -0.12     0.25   0.38  -0.65    -0.10  -0.12   0.21
  12   6    -0.00   0.00  -0.00     0.02   0.01  -0.01     0.01  -0.01   0.00
  13   1     0.00  -0.01  -0.00     0.01  -0.00  -0.00    -0.01   0.02  -0.00
  14   1    -0.00  -0.01   0.01    -0.02  -0.03   0.07     0.00   0.00  -0.01
  15   1     0.01  -0.00  -0.00    -0.07   0.00  -0.00    -0.03  -0.00  -0.00
                     34                     35                     36
                        a                      a                      a 
 Frequencies --  2985.6267              2988.4507              3032.3190
 Red. masses --     1.7374                 1.5630                 1.9237
 Frc consts  --     0.0000                 0.0000                 0.0000
 IR Inten    --     0.2993                 0.3177                 0.2788
 Raman Activ --     0.0000                 0.0000                 0.0000
 Depolar     --     0.0000                 0.0000                 0.0000
 Atom AN      X      Y      Z        X      Y      Z        X      Y      Z
   1   8    -0.00   0.00  -0.00     0.00  -0.00  -0.00     0.00   0.00   0.00
   2   6    -0.11  -0.01   0.01     0.06  -0.00   0.02    -0.00  -0.00   0.00
   3   1     0.40   0.01   0.00    -0.25  -0.01   0.00     0.01   0.00   0.00
   4   1    -0.01  -0.00  -0.00     0.03   0.03  -0.05    -0.00   0.00  -0.00
   5   6    -0.07  -0.09   0.15     0.00  -0.08   0.13    -0.01  -0.00   0.00
   6   1     0.01  -0.01   0.02    -0.20  -0.01   0.02     0.03  -0.00  -0.00
   7   1     0.23   0.33  -0.55     0.21   0.29  -0.48     0.00   0.00  -0.01
   8   1    -0.01  -0.00   0.00     0.00   0.00   0.00    -0.00  -0.00  -0.00
   9   6    -0.14   0.00  -0.01     0.10  -0.06   0.10    -0.04  -0.01   0.01
  10   1     0.54   0.00  -0.00    -0.52  -0.01   0.01     0.12  -0.00  -0.00
  11   1    -0.04  -0.02   0.04     0.17   0.21  -0.36     0.01   0.02  -0.03
  12   6     0.02   0.00  -0.01    -0.02   0.03  -0.01    -0.27  -0.01   0.08
  13   1    -0.00   0.01  -0.00     0.02  -0.06  -0.00     0.01  -0.14   0.01
  14   1    -0.01  -0.02   0.03    -0.03  -0.03   0.05     0.09   0.18  -0.30
  15   1    -0.07  -0.00  -0.00     0.07   0.00  -0.00     0.87   0.01   0.02
                     37                     38                     39
                        a                      a                      a 
 Frequencies --  3036.1007              3040.8565              3541.6071
 Red. masses --     1.8995                 1.3318                 1.8719
 Frc consts  --     0.0000                 0.0000                 0.0000
 IR Inten    --     0.2609                 0.1726                 0.1188
 Raman Activ --     0.0000                 0.0000                 0.0000
 Depolar     --     0.0000                 0.0000                 0.0000
 Atom AN      X      Y      Z        X      Y      Z        X      Y      Z
   1   8     0.00   0.00   0.00     0.00   0.00   0.00    -0.24   0.01  -0.01
   2   6    -0.00   0.00  -0.00    -0.00  -0.00  -0.00    -0.01   0.00  -0.00
   3   1     0.01   0.00  -0.00     0.00  -0.00  -0.00     0.01   0.01  -0.00
   4   1    -0.00  -0.00   0.01    -0.00  -0.00   0.00     0.00  -0.00   0.00
   5   6    -0.00   0.01  -0.01     0.00  -0.00   0.00     0.00  -0.00   0.00
   6   1     0.02   0.00  -0.00    -0.00  -0.00   0.00    -0.00   0.00   0.00
   7   1    -0.02  -0.03   0.04     0.00   0.00  -0.00    -0.00  -0.00  -0.00
   8   1    -0.00  -0.00  -0.00    -0.00  -0.00  -0.00     0.97  -0.04   0.06
   9   6    -0.00   0.02  -0.03    -0.00   0.00   0.01    -0.00  -0.00  -0.00
  10   1     0.04   0.00  -0.00     0.01   0.00   0.00     0.00  -0.00  -0.00
  11   1    -0.03  -0.05   0.08     0.00   0.00  -0.00    -0.00  -0.00   0.00
  12   6    -0.04   0.23  -0.16    -0.03   0.14   0.10     0.00   0.00   0.00
  13   1     0.19  -0.50  -0.02     0.28  -0.74   0.02     0.00  -0.00  -0.00
  14   1    -0.27  -0.33   0.62     0.15   0.24  -0.38     0.00   0.00  -0.00
  15   1     0.23   0.04  -0.02    -0.34   0.01   0.01    -0.00   0.00   0.00
