 
        ______________________________________
       |                                      |
       |           ==================         |
       |                 x T B                |
       |           ==================         |
       |               S. Grimme              |
       |        Universitaet Bonn, MCTC       |
       |         2015-18, Version 5.8.1       |
       |      Sun May  6 11:39:08 CEST 2018   |
       |______________________________________|
 
        This code comes without any warranty
        for non-commercial, academia use only.
        Preliminary GFN2 test version.
        Test license to: Dow Chemical Company
        Cite GFN-xTB work as:
        S. Grimme, C. Bannwarth, P. Shushkov
        JCTC, 13 (2017) 1989-2009
        for GFN2:
        C. Bannwarth, S. Ehlert, S. Grimme
        to be published.
        sTDA-xTB:
        S. Grimme  &  C. Bannwarth, JCP 145 (2016) 054103
        in the mass-spec context additionally:
        V. Asgeirsson, C.Bauer, S. Grimme, Chem. Sci. 8 (2017) 4879
 
        with help from
        P. Shushkov, G. Brandenburg, S. Dohm, J. Pisarek,
        F. März, M. Checinski, S. Ehrlich, S. Spicher, 
        P. Pracht, E. Caldeweyher, S. Ehlert, and C. Bannwarth.
 
        usage        :
        xtb <coord_file> [options]
        where <coord_file> is a valid file of TM)
        (*coord, Bohr) or xmol (*xyz, Angstroem)
        format.

        options:
        -chrg <int>   : molecular charge
        -uhf  <int>   : # of unpaired electrons(=2*S)
        -nox          : skip second, extended part in sTDA-xTB
        -pop          : do population analysis
                      : (default for -nox)
        -mowr <real>  : cut MO write above (def.3 Eh)
        -molden       : write formatted molden file
        -parx <file>  : read parameters for sTDA-xTB
                        calc (def:~/.param_stda2.xtb)
        -parv <file>  : read parameters for vTB part in
                        sTDA-xTB (def: ~/.param_stda1.xtb)
        -xtemp <real> : el. temp for xTB (def. 0 K)
        -etemp <real> : el. temp for GFN (def. 300 K)
        -fod          : calculate the FOD and write
                        molden.input file with
                        appropriate occupations
                        for plotting. Def. T=12500 K
 
        -gfn1         : use GFN-xTB
        -gfn2         : use GFN2-xTB
        -gfn2d3       : GFN2-xTB with D3 instead of D4
        -grad         : GFNn-xTB gradient
        -acc <real>   : GFNn-xTB accuracy (def. 1.0)
        -opt [level]  : optimize at GFNn-xTB
                      : level=crude,vloose,loose,
                      :       tight,vtight
        -hess         : compute Hessian at GFNn-xTB
        -ohess        : optimize and compute Hessian
        -omd          : optimize and do MD
        -siman        : conformational search
        -screen       : opt. loop over ensemble
        -gmd          : annealed MD for GMD procedure
        -modef        : vib mode following
        -gbsa [string1] [string2]
                        use GBSA implicit solvent
                        for solvent [string1] and
                        solvation state [string2]=
                        reference, bar1M (default=1M)
        additional GFN/opt/MD/siman options read from
        $XTBHOME/.xtbrc or $set in coordinate file
 
       spin and charge state information can be on:
       <.CHRG> (charge) and <.UHF> (=nalpha-nbeta)
       -uhf and -chrg override the file info.
       useful machine settings:
       setenv MKL_NUM_THREADS <NCORE_ON_YOUR_MACHINE>
       setenv OMP_STACKSIZE 500m
       limit stacksize unlimited
 
       total energies in Eh, gaps/HL energies in eV
       please read REVISION and HOWTO files carefully
          74  days left until this code expires
 =============================
  # OMP threads =           2
 =============================
 
 xtbhome directory:/home/ua25450/dftb/
 
 argument            1 :-ohess
 
 name of molecule           :
 comment line               :
 number of atoms            :    14
 number of electrons        :    36
 charge                     :  0
 spin                       : 0.0
 first test random number   :  0.6421
 
 
 -----------------------------------------
  G F N (Geometry, Frequency, Non-covalent)
        parametrization, gfnver=           3
     D4 dispersion model
 /home/ua25450/dftb/.param_gfn2.xtb
 -----------------------------------------
      method parameters     
 k(s)        :  1.8500
 k(p)        :  2.2300
 k(d)        :  2.2300
 k(f)        :  2.0000
 kEN (H0ij)  : -2.0000
 D3 a1       :  0.5200
 D3 a2       :  5.0000
 D3 s8       :  2.7000
 D3atm       :  5.0000
 alphaj      :  2.0000
 
     -------------------------
     ! NO SOLVENT MODEL USED !
     -------------------------
 
 doing EN charges ...
 sum q :  0.3330669D-15
 point charge moment (au)
     X       Y       Z   
  -0.2001   0.0268  -0.0002  total (Debye):    0.513
 
            Z     q(EN)     CN     RAES       Cart. coordinates
     1  C   4.0   -0.04    3.24    3.04     7.74219     0.50561     0.00000
     2  C   4.0   -0.04    3.24    3.04    10.37866     0.50561     0.00000
     3  C   4.0   -0.04    3.30    3.05    11.69681     2.78793     0.00000
     4  C   4.0    0.04    3.31    3.05    10.37844     5.07168    -0.00227
     5  C   4.0   -0.04    3.30    3.05     7.74260     5.07153    -0.00317
     6  C   4.0   -0.04    3.24    3.04     6.42433     2.78836    -0.00129
     7  H   1.0    0.04    1.00    1.43     6.70329    -1.29401     0.00085
     8  H   1.0    0.04    1.00    1.43    11.41708    -1.29438     0.00248
     9  H   1.0    0.04    1.00    1.43    13.77491     2.78808     0.00120
    10  H   1.0    0.04    1.00    1.43     6.70302     6.87108    -0.00497
    11  H   1.0    0.04    1.00    1.43     4.34638     2.78870    -0.00163
    12  N   5.0   -0.25    3.10    1.94    11.76830     7.47689    -0.00241
    13  H   1.0    0.10    1.02    1.43    11.31406     8.46679    -1.54670
    14  H   1.0    0.10    1.02    1.43    11.31024     8.46918     1.53921
 
  Z AO/shell   Hii/eV     exponent
  1     Wed Apr 25 08:07:45 CEST 2018   EN: 2.200 GM2: 0.406  GM3: 0.0800  RAES: 1.40
     1s    -10.707211    1.230000
  6     Wed Apr 25 08:07:45 CEST 2018   EN: 2.550 GM2: 0.538  GM3: 0.1500  RAES: 3.00
     2s    -13.970922    2.096432
     2p    -10.063292    1.800000
  7     Wed Apr 25 08:07:45 CEST 2018   EN: 3.040 GM2: 0.461  GM3:-0.0640  RAES: 1.90
     2s    -16.686243    2.339881
     2p    -12.523956    2.014332
 
Refinement of some symmetry elements was terminated before convergence was reached.
Some symmetry elements may remain unidentified.
Molecule has the following symmetry elements: (sigma) 
It seems to be the Cs point group
cs  symmetry found (for desy threshold:  0.10E+00) used in thermo
 no old-style atom pair restraing (fixing) potential
 
             =======================================
             |                                     |
             |        S C C  calculation           |
             |                                     |
             =======================================
 #proc     :            2
 Ncao      :           35
 Nao       :           35
 Nel       :           36
 T(el)     :   300.0
 intcut    :    25.0
 scfconv   :  0.100E-05
   qconv   :  0.100E-03
 intneglect:  0.100E-07
 broydamp  :      0.400
 Nshell    :           21
 iter      E             dE          RMSdq      gap      omega  full diag
   1    -19.6170939 -0.196171E+02  0.471E+00    4.64       0.0  T
   2    -19.6236068 -0.651285E-02  0.275E+00    4.22       1.0  T
   3    -19.6210035  0.260326E-02  0.630E-01    3.82       1.0  T
   4    -19.6242548 -0.325123E-02  0.231E-01    3.98       1.0  T
   5    -19.6246040 -0.349236E-03  0.545E-02    4.00       1.0  T
   6    -19.6246070 -0.301231E-05  0.298E-02    3.99       1.0  T
   7    -19.6246106 -0.360692E-05  0.774E-03    3.98       3.5  T
   8    -19.6246107 -0.107610E-06  0.207E-03    3.98      12.9  T
   9    -19.6246107 -0.114196E-07  0.101E-03    3.98      26.4  T
  10    -19.6246107 -0.647361E-08  0.399E-04    3.98      67.0  T
  11    -19.6246107 -0.818883E-09  0.143E-04    3.98     187.0  T
speedup  1.85
cpu  time for SCC    0.02 s
wall time for SCC    0.01 s

          eigenvalues
 #    :           6          7          8          9         10         11         12         13
 occ. :        2.000      2.000      2.000      2.000      2.000      2.000      2.000      2.000
 eps  :       -15.283    -14.375    -14.096    -13.668    -13.412    -13.059    -12.934    -12.686
 #    :          14         15         16         17         18         19         20         21
 occ. :        2.000      2.000      2.000      2.000      2.000      0.000      0.000      0.000
 eps  :       -11.729    -11.595    -10.931    -10.756    -10.103     -6.120     -6.032     -2.639
 #    :          22         23         24         25         26         27         28         29
 occ. :        0.000      0.000      0.000      0.000      0.000      0.000      0.000      0.000
 eps  :         0.804      2.629      3.392      3.801      4.242      4.659      4.922      6.811
 

   #   Z            q   n(s)   n(p)   n(d)      C6AA      α(0)    relVol
   1   6 C     -0.033  1.085  2.948  0.000    28.829     8.812     0.713
   2   6 C     -0.028  1.087  2.942  0.000    28.725     8.796     0.712
   3   6 C     -0.038  1.088  2.950  0.000    28.962     8.834     0.715
   4   6 C      0.076  1.077  2.848  0.000    26.311     8.418     0.681
   5   6 C     -0.048  1.088  2.960  0.000    29.195     8.870     0.718
   6   6 C     -0.030  1.087  2.943  0.000    28.768     8.803     0.712
   7   1 H      0.028  0.972  0.000  0.000     2.604     2.523     0.499
   8   1 H      0.031  0.969  0.000  0.000     2.561     2.502     0.495
   9   1 H      0.045  0.955  0.000  0.000     2.375     2.410     0.477
  10   1 H      0.025  0.975  0.000  0.000     2.660     2.550     0.505
  11   1 H      0.028  0.972  0.000  0.000     2.616     2.529     0.500
  12   7 N     -0.350  1.350  4.000  0.000    29.421     8.059     1.069
  13   1 H      0.147  0.853  0.000  0.000     1.387     1.844     0.365
  14   1 H      0.147  0.853  0.000  0.000     1.387     1.844     0.365

 Mol. C6AA /au*bohr^6 :       2280.678331
 Mol. C8AA /au*bohr^6 :      54511.228181
 Mol. a(0) /au        :         76.795056

 
 Wiberg/Mayer (AO) data. WBOs > 0.1 written file <wbo>
 largest (>0.05) Wiberg bond orders for each atom
           total WBO             WBO to atom ...
     1  C   3.991    C    6 1.439    C    2 1.439    H    7 0.971    C    4 0.108
     2  C   3.991    C    3 1.442    C    1 1.439    H    8 0.970    C    5 0.112
     3  C   3.990    C    2 1.442    C    4 1.411    H    9 0.968    C    6 0.112
     4  C   3.976    C    5 1.411    C    3 1.411    N   12 1.012    C    1 0.108
     5  C   3.990    C    6 1.441    C    4 1.411    H   10 0.969    C    2 0.112
     6  C   3.991    C    5 1.441    C    1 1.439    H   11 0.970    C    3 0.112
     7  H   0.999    C    1 0.971
     8  H   0.999    C    2 0.970
     9  H   0.998    C    3 0.968
    10  H   0.999    C    5 0.969
    11  H   0.999    C    6 0.970
    12  N   2.992    C    4 1.012    H   14 0.956    H   13 0.956
    13  H   0.978    N   12 0.956
    14  H   0.978    N   12 0.956
 
molecular dipole:
                 x           y           z       tot (Debye)
 q only:       -0.108       0.088      -0.000
   full:        0.517       0.232      -0.001       1.314
molecular quadrupole (traceless):
                xx          xy          yy          xz          yz          zz
 q only:       -3.586      -0.150       3.903      -0.005      -0.005      -0.317
  q+dip:      -11.023      -2.164      11.828      -0.010      -0.016      -0.805
   full:      -12.674      -1.842      10.708      -0.012      -0.013       1.966
 SCC converged in           11  cycles
 
SCC energy    :     -19.6246107
rep           :       0.3239561
ES            :       0.0118533
AES           :       0.0042141
AXC           :       0.0164417
disp          :      -0.0099005
XB            :       0.0000000
fix           :       0.0000000
total E       :     -19.3006389
atomizationE  :       4.2783122     2684.68
(atE without considerung molecular charge,
 total energy contains solvation terms)
H-L gap (eV)  :          3.9832
 
             =======================================
             |                                     |
             |    Approximate Normal Coordinate    |
             |   Rational Function Optimization    |
             |                                     |
             =======================================
Ref. for RF algo: F.Eckert, P.Pulay, H.-J.Werner
                  J.Comput.Chem. 18 (1997) 1473.
ANC idea implemented by S. Grimme in the 2000ers (unpublished)
restraining potential by S. Ehrlich.
dumping coords to <xtbopt.coord> and <xtbopt.log
 optlevel               1
 Maxcycle             200
 Maxmicro              20
 Econv         1.000000000000000E-006
 Gconv         8.000000000000000E-004
 Maxdispl       1.00000000000000     
 Hlow          1.000000000000000E-002
 S6             20.0000000000000     
 Nvar               36

generating ANC from model Hessian ...
 Shifting diagonal of input Hessian by   3.933383398790867E-003
 Lowest  eigenvalues of input Hessian
   -0.000000   -0.000000   -0.000000    0.000000    0.000000    0.000000
    0.010000    0.016245    0.020511    0.021861    0.026346    0.026428
    0.050093    0.062512    0.067388    0.090396    0.092100    0.094946
 Highest eigenvalues
    1.381009    1.512309    1.580669    1.832684    1.918464    1.948262
 
cpu  time for ANC gen    0.01 s
wall time for ANC gen    0.00 s
................................................................................
.............................. CYCLE    1 ......................................
................................................................................
  q data taken from xtbrestart
  CAMM data taken from xtbrestart
   1    -19.6246107 -0.196246E+02  0.298E-05    3.98       0.0  T
   2    -19.6246107 -0.397904E-11  0.153E-05    3.98    1748.3  T
   3    -19.6246107 -0.187583E-11  0.868E-06    3.98    3080.5  T
speedup  1.99
cpu  time for SCC    0.01 s
wall time for SCC    0.00 s
speedup  2.00
cpu  time for grad    0.01 s
wall time for grad    0.00 s
 E :    -19.30063889  G :  0.050695    pred/act E change:  0.000D+00 -0.196D-09
Maxdispl :   0.0851   ||displ|| :   0.1512   Lambda : -0.468D-02
Largest |displ|/coords:  0.0851 (  19)  0.0790 (   8)  0.0712 (  17)
................................................................................
.............................. CYCLE    2 ......................................
................................................................................
   1    -19.6464329 -0.196464E+02  0.143E-01    4.00       0.0  T
   2    -19.6464867 -0.537980E-04  0.765E-02    4.08       1.0  T
   3    -19.6464908 -0.414130E-05  0.453E-02    4.08       1.0  T
   4    -19.6464990 -0.819310E-05  0.137E-02    4.08       1.9  T
   5    -19.6464996 -0.557530E-06  0.288E-03    4.08       9.3  T
   6    -19.6464996 -0.518101E-07  0.131E-03    4.08      20.4  T
speedup  2.00
cpu  time for SCC    0.01 s
wall time for SCC    0.01 s
speedup  2.00
cpu  time for grad    0.00 s
wall time for grad    0.00 s
 E :    -19.30359180  G :  0.019982    pred/act E change:  0.000D+00 -0.295D-02
Maxdispl :   0.0386   ||displ|| :   0.0597   Lambda : -0.581D-03
Largest |displ|/coords:  0.0386 (   5)  0.0229 (   8)  0.0227 (  19)
................................................................................
.............................. CYCLE    3 ......................................
................................................................................
   1    -19.6517832 -0.196518E+02  0.801E-02    4.08       0.0  T
   2    -19.6517986 -0.154415E-04  0.438E-02    4.12       1.0  T
   3    -19.6517997 -0.107182E-05  0.255E-02    4.12       1.0  T
   4    -19.6518024 -0.265309E-05  0.684E-03    4.12       3.9  T
   5    -19.6518025 -0.162781E-06  0.147E-03    4.12      18.2  T
   6    -19.6518025 -0.152163E-07  0.644E-04    4.12      41.5  T
speedup  2.00
cpu  time for SCC    0.01 s
wall time for SCC    0.01 s
speedup  2.00
cpu  time for grad    0.00 s
wall time for grad    0.00 s
 E :    -19.30391308  G :  0.005178    pred/act E change: -0.239D-02 -0.321D-03
Maxdispl :   0.0184   ||displ|| :   0.0219   Lambda : -0.481D-04
Largest |displ|/coords:  0.0184 (   5)  0.0051 (  22)  0.0050 (  13)
................................................................................
.............................. CYCLE    4 ......................................
................................................................................
   1    -19.6510237 -0.196510E+02  0.259E-02    4.12       0.0  T
   2    -19.6510243 -0.589750E-06  0.147E-02    4.12       1.8  T
   3    -19.6510241  0.211420E-06  0.727E-03    4.12       3.7  T
   4    -19.6510245 -0.389813E-06  0.127E-03    4.12      21.1  T
   5    -19.6510245 -0.619160E-08  0.471E-04    4.12      56.7  T
speedup  2.00
cpu  time for SCC    0.01 s
wall time for SCC    0.00 s
speedup  2.00
cpu  time for grad    0.00 s
wall time for grad    0.00 s
 E :    -19.30394606  G :  0.001957    pred/act E change: -0.291D-03 -0.330D-04
Maxdispl :   0.0108   ||displ|| :   0.0146   Lambda : -0.142D-04
Largest |displ|/coords:  0.0108 (   5)  0.0047 (   8)  0.0039 (  20)
................................................................................
.............................. CYCLE    5 ......................................
................................................................................
   1    -19.6502684 -0.196503E+02  0.153E-02    4.12       0.0  T
   2    -19.6502685 -0.102437E-06  0.878E-03    4.12       3.0  T
   3    -19.6502684  0.755263E-07  0.334E-03    4.12       8.0  T
   4    -19.6502685 -0.112154E-06  0.612E-04    4.12      43.7  T
   5    -19.6502685 -0.684288E-09  0.288E-04    4.12      92.7  T
speedup  2.00
cpu  time for SCC    0.01 s
wall time for SCC    0.00 s
speedup  2.00
cpu  time for grad    0.00 s
wall time for grad    0.00 s
 E :    -19.30395350  G :  0.000470    pred/act E change: -0.241D-04 -0.744D-05
Maxdispl :   0.0010   ||displ|| :   0.0016   Lambda : -0.260D-06
Largest |displ|/coords:  0.0010 (   3)  0.0007 (   2)  0.0004 (  11)
................................................................................
.............................. CYCLE    6 ......................................
................................................................................
   1    -19.6502862 -0.196503E+02  0.213E-03    4.12       0.0  T
   2    -19.6502862 -0.311627E-08  0.120E-03    4.12      22.2  T
   3    -19.6502862  0.408168E-09  0.328E-04    4.12      81.4  T
   4    -19.6502862 -0.722043E-09  0.110E-04    4.12     242.5  T
speedup  2.00
cpu  time for SCC    0.01 s
wall time for SCC    0.00 s
speedup  2.00
cpu  time for grad    0.00 s
wall time for grad    0.00 s
 E :    -19.30395367  G :  0.000200    pred/act E change: -0.712D-05 -0.177D-06
Maxdispl :   0.0023   ||displ|| :   0.0030   Lambda : -0.156D-06
Largest |displ|/coords:  0.0023 (   3)  0.0014 (   2)  0.0008 (   1)
ancopt converged in          6 cycles
total energy gain (kcal):     -2.0801
================
 final structure:
================
    14
        -19.30395367
C           4.10119656552593    0.27502091539029   -0.00006243949155
C           5.48545744429596    0.28600121336581    0.00032379033966
C           6.17233763387513    1.48704864166913   -0.00003207314858
C           5.47913134957174    2.68970429891401   -0.00078919048496
C           4.08766064819900    2.67312304399678   -0.00117673693548
C           3.40382344833230    1.47118034246485   -0.00081414667148
H           3.56547752474424   -0.66277333071036    0.00024112156974
H           6.03296798094439   -0.64528163290771    0.00094537984377
H           7.25075523939827    1.51202478533193    0.00026790141749
H           3.54095733512205    3.60754931801355   -0.00170336976454
H           2.32322565356225    1.46851378913583   -0.00110791192733
N           6.23772924346285    3.90322406147695   -0.00092787230085
H           6.00828928261830    4.46074070472600   -0.81879972201899
H           6.00379767034760    4.46358961913295    0.81373860957310
 
 Bond Distances (Angstroems)
 ---------------------------
C1-C2=1.3843         C1-C6=1.3846         C1-H7=1.0800         C2-C1=1.3843         C2-C3=1.3836         C2-H8=1.0803         
C3-C2=1.3836         C3-C4=1.3881         C3-H9=1.0787         C4-C3=1.3881         C4-C5=1.3916         C4-N12=1.4311        
C5-C4=1.3916         C5-C6=1.3829         C5-H10=1.0826        C6-C1=1.3846         C6-C5=1.3829         C6-H11=1.0806        
H7-C1=1.0800         H8-C2=1.0803         H9-C3=1.0787         H10-C5=1.0826        H11-C6=1.0806        N12-C4=1.4311        
N12-H13=1.0161       N12-H14=1.0161       H13-N12=1.0161       H14-N12=1.0161       
 C  H  Rav=1.0804 sigma=0.0013  Rmin=1.0787  Rmax=1.0826     5
 C  C  Rav=1.3858 sigma=0.0031  Rmin=1.3829  Rmax=1.3916     6
 N  H  Rav=1.0161 sigma=0.0000  Rmin=1.0161  Rmax=1.0161     2
 N  C  Rav=1.4311 sigma=0.0000  Rmin=1.4311  Rmax=1.4311     1
 
 selected bond angles (degree)
 --------------------
C6-C1-C2=119.79                H7-C1-C2=120.19                H7-C1-C6=120.02                C3-C2-C1=120.22                
H8-C2-C1=120.00                H8-C2-C3=119.78                C4-C3-C2=120.28                H9-C3-C2=121.09                
H9-C3-C4=118.63                C5-C4-C3=119.28                N12-C4-C3=118.03               N12-C4-C5=122.69               
C6-C5-C4=120.32                H10-C5-C4=119.65               H10-C5-C6=120.03               C5-C6-C1=120.12                
H11-C6-C1=120.10               H11-C6-C5=119.78               
 
 selected dihedral angles (degree)
 ---------------------------------
C3-C2-C1-C6=  0.00            C3-C2-C1-H7=180.00            H8-C2-C1-C6=180.00            H8-C2-C1-H7=  0.00            
C4-C3-C2-C1=  0.00            C4-C3-C2-H8=180.00            H9-C3-C2-C1=180.00            H9-C3-C2-H8=  0.00            
C5-C4-C3-C2=  0.00            C5-C4-C3-H9=180.00            N12-C4-C3-C2=179.99           N12-C4-C3-H9=  0.00           
C6-C5-C4-C3=  0.00            C6-C5-C4-N12=180.01           H10-C5-C4-C3=180.00           H10-C5-C4-N12=  0.00          
C5-C6-C1-C2=  0.00            C5-C6-C1-H7=180.00            H11-C6-C1-C2=180.00           H11-C6-C1-H7=  0.00           
C1-C6-C5-C4=  0.00            C1-C6-C5-H10=180.00           H11-C6-C5-C4=180.00           H11-C6-C5-H10=  0.00          
 
             =======================================
             |                                     |
             |        S C C  calculation           |
             |                                     |
             =======================================
 #proc     :            2
 Ncao      :           35
 Nao       :           35
 Nel       :           36
 T(el)     :   300.0
 intcut    :    25.0
 scfconv   :  0.100E-05
   qconv   :  0.100E-03
 intneglect:  0.100E-07
 broydamp  :      0.400
 Nshell    :           21
 iter      E             dE          RMSdq      gap      omega  full diag
   1    -19.6502862 -0.196503E+02  0.426E-05    4.12       0.0  T
   2    -19.6502862 -0.476064E-12  0.248E-05    4.12    1077.3  T
   3    -19.6502862  0.607514E-12  0.106E-05    4.12    2509.9  T
speedup  2.00
cpu  time for SCC    0.01 s
wall time for SCC    0.00 s

          eigenvalues
 #    :           6          7          8          9         10         11         12         13
 occ. :        2.000      2.000      2.000      2.000      2.000      2.000      2.000      2.000
 eps  :       -15.308    -14.435    -14.142    -13.724    -13.427    -13.057    -12.924    -12.697
 #    :          14         15         16         17         18         19         20         21
 occ. :        2.000      2.000      2.000      2.000      2.000      0.000      0.000      0.000
 eps  :       -11.715    -11.559    -10.936    -10.718    -10.135     -6.011     -5.939     -2.457
 #    :          22         23         24         25         26         27         28         29
 occ. :        0.000      0.000      0.000      0.000      0.000      0.000      0.000      0.000
 eps  :         1.397      3.258      3.891      4.432      4.891      5.384      5.756      5.819
 

   #   Z            q   n(s)   n(p)   n(d)      C6AA      α(0)    relVol
   1   6 C     -0.035  1.078  2.957  0.000    28.881     8.821     0.714
   2   6 C     -0.030  1.080  2.950  0.000    28.757     8.802     0.712
   3   6 C     -0.043  1.083  2.960  0.000    29.060     8.851     0.716
   4   6 C      0.079  1.067  2.854  0.000    26.243     8.408     0.681
   5   6 C     -0.052  1.082  2.970  0.000    29.297     8.886     0.719
   6   6 C     -0.031  1.080  2.951  0.000    28.793     8.808     0.713
   7   1 H      0.030  0.970  0.000  0.000     2.582     2.512     0.497
   8   1 H      0.032  0.968  0.000  0.000     2.547     2.496     0.494
   9   1 H      0.047  0.953  0.000  0.000     2.349     2.397     0.474
  10   1 H      0.024  0.976  0.000  0.000     2.667     2.553     0.505
  11   1 H      0.029  0.971  0.000  0.000     2.596     2.519     0.498
  12   7 N     -0.340  1.354  3.986  0.000    29.162     8.024     1.064
  13   1 H      0.145  0.855  0.000  0.000     1.402     1.854     0.367
  14   1 H      0.145  0.855  0.000  0.000     1.403     1.855     0.367

 Mol. C6AA /au*bohr^6 :       2279.505312
 Mol. C8AA /au*bohr^6 :      54497.238497
 Mol. a(0) /au        :         76.786412

 
 Wiberg/Mayer (AO) data. WBOs > 0.1 written file <wbo>
 largest (>0.05) Wiberg bond orders for each atom
           total WBO             WBO to atom ...
     1  C   3.993    C    2 1.440    C    6 1.436    H    7 0.972    C    4 0.109
     2  C   3.993    C    3 1.443    C    1 1.440    H    8 0.971    C    5 0.111
     3  C   3.991    C    2 1.443    C    4 1.407    H    9 0.969    C    6 0.110
     4  C   3.977    C    3 1.407    C    5 1.402    N   12 1.027    C    1 0.109
     5  C   3.992    C    6 1.447    C    4 1.402    H   10 0.970    C    2 0.111
     6  C   3.993    C    5 1.447    C    1 1.436    H   11 0.971    C    3 0.110
     7  H   0.999    C    1 0.972
     8  H   0.999    C    2 0.971
     9  H   0.998    C    3 0.969
    10  H   0.999    C    5 0.970
    11  H   0.999    C    6 0.971
    12  N   3.000    C    4 1.027    H   14 0.952    H   13 0.952
    13  H   0.979    N   12 0.952
    14  H   0.979    N   12 0.952
 
molecular dipole:
                 x           y           z       tot (Debye)
 q only:       -0.084       0.130      -0.001
   full:       -0.438       0.301      -0.002       1.352
molecular quadrupole (traceless):
                xx          xy          yy          xz          yz          zz
 q only:       -3.346       0.845       4.161      -0.017      -0.011      -0.815
  q+dip:      -11.051      -0.592      12.215      -0.036      -0.026      -1.164
   full:      -12.644      -0.312      11.193      -0.038      -0.024       1.451
 SCC converged in            3  cycles
 
SCC energy    :     -19.6502862
rep           :       0.3463172
ES            :       0.0115024
AES           :       0.0042574
AXC           :       0.0155388
disp          :      -0.0099682
XB            :       0.0000000
fix           :       0.0000000
total E       :     -19.3039537
atomizationE  :       4.2816270     2686.76
(atE without considerung molecular charge,
 total energy contains solvation terms)
H-L gap (eV)  :          4.1241
 !!!!!!!!!!!!!!!!!!!!!!!!!!!!!!!!!!!
 ! Note: the input coordinates are !
 ! NOT overwritten. The optimized  !
 ! ones are on file <xtbopt.coord> !
 ! (or on <xtbopt.xyz> if it was a !
 ! xyz file)                       !
 !!!!!!!!!!!!!!!!!!!!!!!!!!!!!!!!!!!
 
Refinement of some symmetry elements was terminated before convergence was reached.
Some symmetry elements may remain unidentified.
Molecule has the following symmetry elements: (sigma) 
It seems to be the Cs point group
cs  symmetry found (for desy threshold:  0.10E+00) used in thermo
  q data taken from xtbrestart
  CAMM data taken from xtbrestart
 
             =======================================
             |                                     |
             |         Numerical Hessian           |
             |                                     |
             =======================================
step length          :   0.00500
SCC accuracy         :   0.30000
Hessian scale factor :   1.00000
frozen atoms in %    :   0.00000    0
RMS gradient         :   0.00020
estimated CPU  time      0.02 min
estimated wall time      0.01 min
 
 writing file <hessian>.
 
 projected vibrational frequencies (cm-1)
eig.   :       -0.00    -0.00    -0.00    -0.00     0.00     0.00
eig.   :     -328.86   205.73   360.97   372.12   451.31   503.04
eig.   :      591.25   651.53   745.16   822.70   876.31   897.99
eig.   :      928.83   931.31   935.15   989.33  1078.57  1112.65
eig.   :     1113.38  1179.75  1187.74  1249.57  1276.95  1312.11
eig.   :     1433.65  1478.45  1529.69  1589.63  1603.09  3054.63
eig.   :     3072.82  3077.14  3089.72  3104.63  3367.86  3382.24
 reduced masses (amu)
   1: 10.80   2: 11.22   3: 11.05   4: 10.81   5: 11.38   6: 10.34   7:  1.65   8:  9.88
   9: 10.01  10:  8.89  11:  8.78  12: 11.59  13: 11.17  14: 10.18  15:  2.98  16: 11.28
  17:  3.31  18:  3.60  19:  3.94  20:  3.05  21:  4.38  22: 10.76  23:  6.38  24:  3.96
  25:  3.78  26:  1.62  27:  1.88  28:  9.58  29:  3.83  30: 11.53  31:  8.64  32:  9.15
  33:  3.07  34: 10.77  35: 11.38  36:  1.80  37:  1.78  38:  1.83  39:  1.90  40:  1.86
  41:  1.50  42:  2.07
 IR intensities (amu)
   1:  0.14   2:  0.10   3:  0.09   4:  0.09   5:  0.14   6:  0.05   7:  0.27   8:  0.04
   9:  0.30  10:  0.01  11:  0.05  12:  0.24  13:  0.06  14:  0.05  15:  0.25  16:  0.43
  17:  0.01  18:  0.04  19:  0.01  20:  0.01  21:  0.71  22:  0.18  23:  0.12  24:  0.04
  25:  0.19  26:  0.10  27:  0.22  28:  0.90  29:  0.11  30:  0.11  31:  0.09  32:  0.72
  33:  0.34  34:  0.26  35:  0.49  36:  0.21  37:  0.10  38:  0.30  39:  0.31  40:  0.19
  41:  0.05  42:  0.01
 output can be read by thermo (or use thermo option).
 writing <g98.out> molden fake output.
 recommended (thermochemical) frequency scaling factor: 1.0
                    ==================
                    thermo calculation
                    ==================
Nvib :   35 Nimag : 1  symmetry :   cs  rot number :  1  scale factor : 1.00 sthr :  50.
omega=205.73     Gvib=    -0.621     Grot=    -0.637     Gused=    -0.621
 
   temp. (K)  partition function   enthalpy   heat capacity  entropy
                                   cal/mol     cal/K/mol   cal/K/mol   J/K/mol
 298.15  VIB   3.67                 1666.025     15.745      8.174
         ROT  0.169E+06              888.752      2.981     26.901
         INT  0.620E+06             2554.777     18.726     35.075
         TR   0.870E+27             1481.254      4.968     39.488
         TOT                        4036.0312    23.6939    74.5627   311.9692
                     Eh         kcal/mol          kJ/mol 
ZPVE            0.112899         70.8453         296.416    
H(0)-H(T)+PV    0.643182E-02     4.03603         16.8867    
H(T)            0.119331         74.8813         313.302    
T*S             0.354271E-01     22.2309         93.0136    
G(T)            0.839038E-01     52.6504         220.289    
    -19.22004985  <=== TOTAL FREE ENERGY in Eh incl. el.,ZPVE,RRHO,solv. parts
 
Eat (element increment corrected) /kcal :  2024.963
        -447.028  <=== HOF(298)/kcal, to be compared to exptl. data
imag cut-off (cm-1) :    5.00
 found            1  significant imaginary frequency
 writing imag mode distorted coords to <xtbhess.coord>
 for further optimization.
 
 normal mode %tage of torsion character
   1:  0.00   2:  0.00   3:  0.00   4:  0.00   5:  0.00   6:  0.00   7:  1.00   8:  1.00
   9:  1.00  10:  1.00  11:  1.00  12:  1.00  13:  1.00  14:  1.00  15:  1.00  16:  1.00
  17:  1.00  18:  1.00  19:  1.00  20:  1.00  21:  1.00  22:  1.00  23:  1.00  24:  1.00
  25:  1.00  26:  0.99  27:  1.00  28:  1.00  29:  1.00  30:  1.00  31:  1.00  32:  1.00
  33:  1.00  34:  1.00  35:  1.00  36:  1.00  37:  1.00  38:  1.00  39:  1.00  40:  0.99
  41:  0.93  42:  1.00
 recommended # of modes for mode following           4
 
speedup  1.21
cpu  time for all    1.49 s
wall time for all    1.24 s
