 Entering Gaussian System
 *********************************************
 Gaussian 98:
 frequency output generated by the xtb code
 *********************************************
                         Standard orientation:
 --------------------------------------------------------------------
  Center     Atomic     Atomic              Coordinates (Angstroms)
  Number     Number      Type              X           Y           Z
 --------------------------------------------------------------------
    1          6             0        4.101198    0.274999   -0.000077
    2          6             0        5.485459    0.285972    0.000304
    3          6             0        6.172345    1.487016   -0.000056
    4          6             0        5.479145    2.689676   -0.000813
    5          6             0        4.087675    2.673102   -0.001196
    6          6             0        3.403831    1.471162   -0.000829
    7          1             0        3.565474   -0.662792    0.000230
    8          1             0        6.032964   -0.645313    0.000925
    9          1             0        7.250763    1.511987    0.000240
   10          1             0        3.540976    3.607531   -0.001722
   11          1             0        2.323233    1.468502   -0.001119
   12          7             0        6.237750    3.903191   -0.000956
   13          1             0        6.008310    4.460708   -0.818828
   14          1             0        6.003824    4.463560    0.813710
 --------------------------------------------------------------------
     1 basis functions        1 primitive gaussians
     1 alpha electrons        1 beta electrons
 
 Harmonic frequencies (cm**-1), IR intensities (KM/Mole),
 Raman scattering activities (A**4/amu), Raman depolarization ratios,
 reduced masses (AMU), force constants (mDyne/A) and normal coordinates:
                      1                      2                      3
                        a                      a                      a 
 Frequencies --  -328.8605               205.7264               360.9719
 Red. masses --     1.6532                 9.8834                10.0128
 Frc consts  --     0.0000                 0.0000                 0.0000
 IR Inten    --     0.2746                 0.0432                 0.3008
 Raman Activ --     0.0000                 0.0000                 0.0000
 Depolar     --     0.0000                 0.0000                 0.0000
 Atom AN      X      Y      Z        X      Y      Z        X      Y      Z
   1   6    -0.00  -0.00   0.01     0.00  -0.00  -0.42     0.13  -0.07   0.00
   2   6    -0.00  -0.00   0.05     0.00   0.00   0.00     0.12   0.11  -0.00
   3   6    -0.00   0.00   0.08    -0.00   0.00   0.39    -0.21   0.25   0.00
   4   6    -0.00  -0.00   0.02    -0.00   0.00   0.26    -0.32   0.17   0.00
   5   6    -0.00  -0.00  -0.08    -0.00   0.00   0.40    -0.33   0.06  -0.00
   6   6    -0.00   0.00  -0.04     0.00  -0.00  -0.00    -0.03  -0.15   0.00
   7   1    -0.00   0.00  -0.00     0.00  -0.00  -0.28     0.07  -0.04   0.00
   8   1    -0.00  -0.00   0.01     0.00  -0.00  -0.03     0.09   0.06  -0.00
   9   1    -0.00   0.00   0.03    -0.00   0.00   0.15    -0.06   0.16   0.00
  10   1     0.00  -0.00  -0.05    -0.00   0.00   0.16    -0.16  -0.02  -0.00
  11   1    -0.00  -0.00  -0.02     0.00  -0.00  -0.03    -0.01  -0.11   0.00
  12   7     0.00   0.00  -0.19     0.00  -0.00  -0.47     0.47  -0.34   0.00
  13   1    -0.55   0.29   0.30    -0.08  -0.12  -0.18     0.28  -0.03  -0.00
  14   1     0.55  -0.29   0.30     0.08   0.12  -0.18     0.28  -0.03   0.00
                      4                      5                      6
                        a                      a                      a 
 Frequencies --   372.1162               451.3080               503.0381
 Red. masses --     8.8896                 8.7788                11.5943
 Frc consts  --     0.0000                 0.0000                 0.0000
 IR Inten    --     0.0065                 0.0471                 0.2389
 Raman Activ --     0.0000                 0.0000                 0.0000
 Depolar     --     0.0000                 0.0000                 0.0000
 Atom AN      X      Y      Z        X      Y      Z        X      Y      Z
   1   6     0.00  -0.00  -0.00     0.00  -0.00  -0.39    -0.24  -0.42   0.00
   2   6    -0.00   0.00   0.43    -0.00   0.00   0.27    -0.26  -0.02  -0.00
   3   6    -0.00   0.00  -0.42    -0.00   0.00   0.06    -0.25   0.05  -0.00
   4   6    -0.00   0.00  -0.01     0.00  -0.00  -0.62     0.18   0.32  -0.00
   5   6    -0.00   0.00   0.42    -0.00   0.00   0.04     0.16  -0.19   0.00
   6   6     0.00  -0.00  -0.42    -0.00   0.00   0.28     0.11  -0.24   0.00
   7   1     0.00  -0.00   0.00     0.00  -0.00  -0.17    -0.07  -0.12   0.00
   8   1     0.00   0.00   0.27    -0.00   0.00   0.25     0.00   0.04  -0.00
   9   1     0.00   0.00  -0.26    -0.00   0.00   0.18    -0.07  -0.10  -0.00
  10   1    -0.00   0.00   0.27    -0.00   0.00   0.17    -0.05  -0.11   0.00
  11   1     0.00  -0.00  -0.26    -0.00   0.00   0.26     0.03   0.02  -0.00
  12   7     0.00  -0.00  -0.00     0.00  -0.00   0.10     0.27   0.46  -0.00
  13   1    -0.02   0.02   0.02     0.10   0.14   0.10     0.07   0.12  -0.00
  14   1     0.02  -0.02   0.02    -0.10  -0.14   0.10     0.07   0.12   0.00
                      7                      8                      9
                        a                      a                      a 
 Frequencies --   591.2452               651.5280               745.1603
 Red. masses --    11.1745                10.1805                 2.9777
 Frc consts  --     0.0000                 0.0000                 0.0000
 IR Inten    --     0.0640                 0.0524                 0.2484
 Raman Activ --     0.0000                 0.0000                 0.0000
 Depolar     --     0.0000                 0.0000                 0.0000
 Atom AN      X      Y      Z        X      Y      Z        X      Y      Z
   1   6    -0.15   0.09  -0.00    -0.00   0.00   0.35    -0.00   0.00   0.15
   2   6    -0.11   0.48  -0.00     0.00  -0.00  -0.38     0.00   0.00   0.14
   3   6     0.40   0.16  -0.00    -0.00   0.00   0.35    -0.00   0.00   0.16
   4   6     0.13  -0.07   0.00     0.00  -0.00  -0.43     0.00  -0.00  -0.24
   5   6     0.06  -0.42   0.00    -0.00   0.00   0.34    -0.00   0.00   0.17
   6   6    -0.48  -0.15   0.00     0.00  -0.00  -0.38    -0.00   0.00   0.15
   7   1     0.10  -0.06   0.00    -0.00   0.00   0.21     0.00  -0.00  -0.47
   8   1    -0.08   0.11  -0.00     0.00  -0.00  -0.07     0.00  -0.00  -0.40
   9   1     0.11  -0.01   0.00    -0.00   0.00   0.22     0.00  -0.00  -0.33
  10   1     0.06  -0.09   0.00    -0.00   0.00   0.21     0.00  -0.00  -0.35
  11   1    -0.13   0.01   0.00     0.00  -0.00  -0.07     0.00  -0.00  -0.41
  12   7     0.10  -0.07   0.00    -0.00  -0.00  -0.03    -0.00  -0.00   0.00
  13   1     0.05  -0.01  -0.00     0.06   0.08   0.03     0.08   0.10   0.05
  14   1     0.05  -0.01   0.00    -0.06  -0.08   0.03    -0.08  -0.10   0.05
                     10                     11                     12
                        a                      a                      a 
 Frequencies --   822.6965               876.3094               897.9939
 Red. masses --    11.2844                 3.3130                 3.5968
 Frc consts  --     0.0000                 0.0000                 0.0000
 IR Inten    --     0.4286                 0.0106                 0.0368
 Raman Activ --     0.0000                 0.0000                 0.0000
 Depolar     --     0.0000                 0.0000                 0.0000
 Atom AN      X      Y      Z        X      Y      Z        X      Y      Z
   1   6    -0.15  -0.27   0.00     0.00  -0.00  -0.03    -0.00   0.00   0.34
   2   6    -0.21   0.41  -0.00     0.00  -0.00  -0.23    -0.00   0.00   0.00
   3   6    -0.05   0.23  -0.00     0.00  -0.00  -0.21     0.00  -0.00  -0.25
   4   6    -0.01  -0.01   0.00     0.00  -0.00   0.00    -0.00  -0.00   0.04
   5   6     0.23   0.07  -0.00    -0.00   0.00   0.25    -0.00  -0.00  -0.23
   6   6     0.46   0.03   0.00    -0.00   0.00   0.22    -0.00  -0.00   0.06
   7   1    -0.04  -0.07   0.00    -0.00   0.00   0.06     0.00  -0.00  -0.55
   8   1     0.05   0.18  -0.00    -0.00   0.00   0.45     0.00   0.00  -0.07
   9   1    -0.02   0.04  -0.00    -0.00   0.00   0.42    -0.00   0.00   0.48
  10   1     0.04   0.00   0.00     0.00  -0.00  -0.48    -0.00   0.00   0.44
  11   1     0.13   0.13  -0.00     0.00  -0.00  -0.41     0.00  -0.00  -0.18
  12   7    -0.25  -0.44   0.00    -0.00   0.00  -0.00     0.00   0.00   0.01
  13   1    -0.06  -0.11   0.00    -0.00   0.00   0.00    -0.04  -0.04  -0.02
  14   1    -0.06  -0.11  -0.00     0.00  -0.00   0.00     0.04   0.04  -0.02
                     13                     14                     15
                        a                      a                      a 
 Frequencies --   928.8348               931.3147               935.1531
 Red. masses --     3.9369                 3.0542                 4.3829
 Frc consts  --     0.0000                 0.0000                 0.0000
 IR Inten    --     0.0073                 0.0093                 0.7118
 Raman Activ --     0.0000                 0.0000                 0.0000
 Depolar     --     0.0000                 0.0000                 0.0000
 Atom AN      X      Y      Z        X      Y      Z        X      Y      Z
   1   6    -0.00   0.00  -0.11     0.00  -0.00  -0.23     0.02  -0.03  -0.00
   2   6     0.00  -0.00  -0.16    -0.00   0.00   0.31    -0.02   0.06  -0.00
   3   6     0.00  -0.00   0.23     0.00  -0.00  -0.16    -0.06   0.05   0.00
   4   6    -0.00   0.00  -0.02     0.00  -0.00  -0.05     0.02  -0.07  -0.00
   5   6     0.00  -0.00  -0.25    -0.00   0.00   0.04    -0.10   0.05  -0.00
   6   6    -0.00   0.00   0.33    -0.00   0.00   0.09    -0.04  -0.02   0.00
   7   1    -0.00   0.00   0.23    -0.00   0.00   0.47     0.03  -0.02   0.00
   8   1    -0.00  -0.00   0.21     0.00  -0.00  -0.61     0.03   0.04   0.00
   9   1     0.00  -0.00  -0.31    -0.00   0.00   0.38    -0.02   0.06  -0.00
  10   1     0.00   0.00   0.45    -0.00   0.00   0.06    -0.06  -0.00   0.00
  11   1     0.00  -0.00  -0.58     0.00  -0.00  -0.27    -0.01  -0.03  -0.00
  12   7    -0.00   0.00  -0.00     0.00  -0.00  -0.01     0.48  -0.01   0.00
  13   1     0.00   0.01   0.00     0.01   0.01   0.00    -0.59  -0.10   0.09
  14   1     0.00  -0.01   0.00    -0.01  -0.01   0.00    -0.59  -0.10  -0.10
                     16                     17                     18
                        a                      a                      a 
 Frequencies --   989.3284              1078.5744              1112.6530
 Red. masses --    10.7618                 6.3827                 3.9592
 Frc consts  --     0.0000                 0.0000                 0.0000
 IR Inten    --     0.1786                 0.1171                 0.0378
 Raman Activ --     0.0000                 0.0000                 0.0000
 Depolar     --     0.0000                 0.0000                 0.0000
 Atom AN      X      Y      Z        X      Y      Z        X      Y      Z
   1   6    -0.19  -0.33   0.00     0.25   0.37  -0.00     0.14  -0.16   0.00
   2   6    -0.11   0.08  -0.00    -0.27   0.25  -0.00    -0.01   0.13  -0.00
   3   6     0.57  -0.11   0.00    -0.11  -0.14  -0.00    -0.20  -0.08  -0.00
   4   6    -0.06  -0.12   0.00     0.02   0.00   0.00     0.14  -0.04   0.04
   5   6    -0.38   0.42  -0.00    -0.09  -0.11  -0.00    -0.02   0.27  -0.01
   6   6     0.13  -0.05   0.00     0.30  -0.12   0.00    -0.24   0.01  -0.00
   7   1    -0.06  -0.09   0.00     0.10   0.09  -0.00     0.34  -0.22   0.00
   8   1    -0.12  -0.04  -0.00    -0.28  -0.05  -0.00     0.28   0.21   0.00
   9   1     0.16  -0.10   0.00    -0.03  -0.44   0.00    -0.05  -0.45   0.01
  10   1    -0.16   0.08  -0.00    -0.24  -0.16   0.00     0.33   0.28   0.01
  11   1     0.03  -0.11   0.00     0.09  -0.34   0.00    -0.07  -0.18   0.00
  12   7     0.05   0.14  -0.00     0.01   0.01  -0.00    -0.05  -0.01  -0.03
  13   1     0.05   0.04  -0.00    -0.00   0.00  -0.00     0.06   0.04   0.00
  14   1     0.05   0.04   0.00    -0.00   0.00   0.00    -0.02  -0.06   0.03
                     19                     20                     21
                        a                      a                      a 
 Frequencies --  1113.3775              1179.7470              1187.7409
 Red. masses --     3.7836                 1.6194                 1.8797
 Frc consts  --     0.0000                 0.0000                 0.0000
 IR Inten    --     0.1876                 0.1019                 0.2195
 Raman Activ --     0.0000                 0.0000                 0.0000
 Depolar     --     0.0000                 0.0000                 0.0000
 Atom AN      X      Y      Z        X      Y      Z        X      Y      Z
   1   6    -0.01   0.02   0.01    -0.08   0.03  -0.00    -0.02   0.02  -0.00
   2   6     0.00  -0.01  -0.02     0.11  -0.02   0.00    -0.14   0.04  -0.00
   3   6     0.02   0.01  -0.04     0.07   0.07  -0.00    -0.04   0.08  -0.00
   4   6    -0.01   0.00   0.35     0.07   0.03  -0.00    -0.01  -0.12   0.00
   5   6     0.00  -0.03  -0.05    -0.08  -0.09   0.00     0.08   0.01  -0.00
   6   6     0.03  -0.00  -0.02    -0.02   0.02  -0.00     0.06  -0.13   0.00
   7   1    -0.04   0.02   0.01    -0.61   0.34  -0.00    -0.20   0.12  -0.00
   8   1    -0.03  -0.02   0.03     0.49   0.26  -0.00    -0.17  -0.07  -0.00
   9   1     0.01   0.05   0.05     0.03  -0.31   0.00    -0.02   0.39  -0.00
  10   1    -0.04  -0.03   0.05    -0.06  -0.05  -0.00     0.46   0.26   0.00
  11   1     0.01   0.02   0.03    -0.01  -0.21   0.00     0.02  -0.63   0.00
  12   7     0.01  -0.00  -0.32    -0.00  -0.05   0.00     0.03   0.07  -0.00
  13   1     0.37   0.46   0.14    -0.01  -0.01   0.00     0.02   0.01  -0.00
  14   1    -0.38  -0.46   0.14    -0.01  -0.01  -0.00     0.02   0.01   0.00
                     22                     23                     24
                        a                      a                      a 
 Frequencies --  1249.5736              1276.9464              1312.1120
 Red. masses --     9.5780                 3.8288                11.5267
 Frc consts  --     0.0000                 0.0000                 0.0000
 IR Inten    --     0.8965                 0.1140                 0.1075
 Raman Activ --     0.0000                 0.0000                 0.0000
 Depolar     --     0.0000                 0.0000                 0.0000
 Atom AN      X      Y      Z        X      Y      Z        X      Y      Z
   1   6    -0.01  -0.11   0.00     0.08  -0.07   0.00     0.38  -0.20   0.00
   2   6     0.05  -0.23   0.00     0.19   0.02   0.00    -0.32  -0.15   0.00
   3   6     0.08   0.24  -0.00     0.05   0.15  -0.00    -0.03   0.39  -0.00
   4   6     0.39   0.52  -0.00    -0.32   0.19   0.00     0.30  -0.25  -0.00
   5   6     0.05   0.15  -0.00    -0.04  -0.09   0.00    -0.40  -0.23   0.00
   6   6    -0.22   0.03  -0.00     0.04  -0.17   0.00     0.04   0.34  -0.00
   7   1    -0.01  -0.03  -0.00    -0.22   0.12  -0.00    -0.05   0.04  -0.00
   8   1    -0.23  -0.21   0.00    -0.34  -0.23   0.00    -0.06  -0.03  -0.00
   9   1     0.04  -0.07   0.00     0.03  -0.43   0.00    -0.01  -0.01  -0.00
  10   1    -0.15  -0.04  -0.00     0.42   0.23   0.00     0.08   0.04   0.00
  11   1    -0.06  -0.28   0.00     0.01   0.31  -0.00     0.01   0.14  -0.00
  12   7    -0.16  -0.33   0.00     0.06  -0.04  -0.00     0.00   0.05   0.00
  13   1    -0.07  -0.09   0.00    -0.06   0.02   0.03     0.05  -0.02  -0.03
  14   1    -0.07  -0.09  -0.00    -0.06   0.02  -0.03     0.05  -0.02   0.03
                     25                     26                     27
                        a                      a                      a 
 Frequencies --  1433.6506              1478.4539              1529.6921
 Red. masses --     8.6354                 9.1519                 3.0747
 Frc consts  --     0.0000                 0.0000                 0.0000
 IR Inten    --     0.0909                 0.7181                 0.3374
 Raman Activ --     0.0000                 0.0000                 0.0000
 Depolar     --     0.0000                 0.0000                 0.0000
 Atom AN      X      Y      Z        X      Y      Z        X      Y      Z
   1   6    -0.27   0.13  -0.00    -0.10  -0.25   0.00     0.21  -0.13   0.00
   2   6    -0.13  -0.34   0.00     0.34   0.11   0.00    -0.09   0.07  -0.00
   3   6     0.24   0.20  -0.00    -0.15   0.26  -0.00    -0.01  -0.11   0.00
   4   6    -0.33   0.16  -0.00    -0.19  -0.40   0.00    -0.01  -0.01   0.00
   5   6     0.01  -0.29   0.00     0.31   0.03   0.00     0.10   0.04   0.00
   6   6     0.21   0.31  -0.00    -0.12   0.35  -0.00    -0.11   0.08  -0.00
   7   1     0.31  -0.18   0.00    -0.06  -0.06   0.00    -0.08   0.04  -0.00
   8   1     0.20   0.04   0.00    -0.21  -0.15   0.00    -0.03   0.02  -0.00
   9   1     0.08  -0.14   0.00    -0.04  -0.22   0.00    -0.01   0.05  -0.00
  10   1     0.14  -0.01  -0.00    -0.21  -0.17   0.00    -0.05  -0.03   0.00
  11   1     0.06  -0.23   0.00    -0.03  -0.25   0.00    -0.03  -0.01   0.00
  12   7     0.06  -0.06   0.00     0.05   0.13  -0.00    -0.02  -0.24   0.00
  13   1    -0.04   0.10   0.08     0.03  -0.00  -0.02    -0.03   0.52   0.36
  14   1    -0.04   0.10  -0.08     0.03  -0.00   0.02    -0.03   0.52  -0.36
                     28                     29                     30
                        a                      a                      a 
 Frequencies --  1589.6273              1603.0921              3054.6300
 Red. masses --    10.7736                11.3756                 1.7969
 Frc consts  --     0.0000                 0.0000                 0.0000
 IR Inten    --     0.2553                 0.4874                 0.2131
 Raman Activ --     0.0000                 0.0000                 0.0000
 Depolar     --     0.0000                 0.0000                 0.0000
 Atom AN      X      Y      Z        X      Y      Z        X      Y      Z
   1   6    -0.47   0.19  -0.00    -0.02   0.24  -0.00    -0.00   0.01  -0.00
   2   6     0.41   0.06   0.00    -0.22  -0.30   0.00     0.00   0.00  -0.00
   3   6    -0.20   0.11  -0.00     0.04   0.50  -0.00     0.00   0.00  -0.00
   4   6     0.42  -0.17   0.00    -0.00  -0.32   0.00    -0.00  -0.01   0.00
   5   6    -0.37  -0.08  -0.00     0.23   0.31  -0.00     0.13  -0.22   0.00
   6   6     0.21  -0.10   0.00    -0.05  -0.49   0.00    -0.07  -0.00  -0.00
   7   1     0.09  -0.07   0.00     0.05   0.03  -0.00    -0.01  -0.03   0.00
   8   1    -0.06  -0.08   0.00     0.08   0.00   0.00     0.00  -0.00   0.00
   9   1    -0.05  -0.03  -0.00     0.02  -0.11   0.00    -0.02  -0.00  -0.00
  10   1     0.07   0.07  -0.00    -0.10  -0.01  -0.00    -0.47   0.79  -0.00
  11   1     0.05   0.02  -0.00    -0.01   0.11  -0.00     0.29   0.00   0.00
  12   7    -0.03  -0.07   0.00    -0.00   0.01   0.00    -0.00   0.00   0.00
  13   1     0.01   0.16   0.11     0.02   0.07   0.04     0.00  -0.00   0.00
  14   1     0.01   0.16  -0.11     0.02   0.07  -0.04     0.00  -0.00  -0.00
                     31                     32                     33
                        a                      a                      a 
 Frequencies --  3072.8161              3077.1433              3089.7207
 Red. masses --     1.7756                 1.8314                 1.8956
 Frc consts  --     0.0000                 0.0000                 0.0000
 IR Inten    --     0.0972                 0.3012                 0.3051
 Raman Activ --     0.0000                 0.0000                 0.0000
 Depolar     --     0.0000                 0.0000                 0.0000
 Atom AN      X      Y      Z        X      Y      Z        X      Y      Z
   1   6    -0.08  -0.13   0.00     0.01   0.02  -0.00     0.11   0.19  -0.00
   2   6    -0.06   0.10  -0.00     0.10  -0.18   0.00    -0.06   0.10  -0.00
   3   6     0.02   0.00   0.00    -0.04  -0.00  -0.00     0.05  -0.00   0.00
   4   6    -0.00  -0.00   0.00    -0.01  -0.00  -0.00     0.00  -0.00  -0.00
   5   6     0.03  -0.05   0.00     0.03  -0.05   0.00     0.01  -0.03   0.00
   6   6     0.17  -0.00   0.00     0.17   0.00   0.00     0.12  -0.00   0.00
   7   1     0.29   0.50  -0.00    -0.05  -0.08   0.00    -0.37  -0.66   0.00
   8   1     0.22  -0.37   0.00    -0.37   0.63  -0.00     0.20  -0.33   0.00
   9   1    -0.07  -0.00  -0.00     0.15   0.00   0.00    -0.20  -0.00  -0.00
  10   1    -0.10   0.17  -0.00    -0.09   0.15  -0.00    -0.04   0.08  -0.00
  11   1    -0.60  -0.00  -0.00    -0.57  -0.00  -0.00    -0.39  -0.00  -0.00
  12   7     0.00   0.00   0.00     0.00   0.00   0.00     0.00   0.00   0.00
  13   1     0.00   0.00   0.00     0.00   0.00  -0.00    -0.00  -0.00   0.00
  14   1     0.00   0.00  -0.00     0.00   0.00   0.00    -0.00  -0.00  -0.00
                     34                     35                     36
                        a                      a                      a 
 Frequencies --  3104.6279              3367.8588              3382.2375
 Red. masses --     1.8625                 1.5018                 2.0736
 Frc consts  --     0.0000                 0.0000                 0.0000
 IR Inten    --     0.1907                 0.0478                 0.0110
 Raman Activ --     0.0000                 0.0000                 0.0000
 Depolar     --     0.0000                 0.0000                 0.0000
 Atom AN      X      Y      Z        X      Y      Z        X      Y      Z
   1   6     0.02   0.03  -0.00    -0.00   0.00  -0.00     0.00   0.00   0.00
   2   6    -0.04   0.07  -0.00     0.00   0.00   0.00    -0.00  -0.00   0.00
   3   6    -0.27  -0.01  -0.00    -0.00   0.00  -0.00     0.00  -0.00  -0.00
   4   6    -0.01  -0.01   0.00     0.00  -0.01   0.00     0.00   0.00  -0.00
   5   6     0.01  -0.00   0.00     0.00   0.00   0.00    -0.00  -0.00   0.00
   6   6     0.01  -0.00   0.00    -0.00  -0.00  -0.00    -0.00  -0.00   0.00
   7   1    -0.05  -0.09   0.00    -0.00  -0.00  -0.00    -0.00  -0.00  -0.00
   8   1     0.12  -0.20   0.00     0.00  -0.00  -0.00    -0.00  -0.00  -0.00
   9   1     0.93   0.02   0.00    -0.00   0.00  -0.00    -0.00   0.00  -0.00
  10   1    -0.01   0.02  -0.00    -0.00   0.00  -0.00    -0.00   0.00  -0.00
  11   1    -0.04   0.00  -0.00     0.00   0.00   0.00    -0.00  -0.00   0.00
  12   7     0.00   0.00  -0.00     0.06  -0.18  -0.00     0.00  -0.00  -0.29
  13   1    -0.00   0.00  -0.00    -0.12   0.35  -0.58     0.14  -0.38   0.54
  14   1    -0.00   0.00   0.00    -0.13   0.36   0.58    -0.15   0.38   0.54
