 Entering Gaussian System
 *********************************************
 Gaussian 98:
 frequency output generated by the xtb code
 *********************************************
                         Standard orientation:
 --------------------------------------------------------------------
  Center     Atomic     Atomic              Coordinates (Angstroms)
  Number     Number      Type              X           Y           Z
 --------------------------------------------------------------------
    1          6             0        4.101196    0.275021   -0.000062
    2          6             0        5.485457    0.286001    0.000324
    3          6             0        6.172337    1.487049   -0.000032
    4          6             0        5.479131    2.689704   -0.000789
    5          6             0        4.087661    2.673123   -0.001177
    6          6             0        3.403823    1.471180   -0.000814
    7          1             0        3.565477   -0.662773    0.000241
    8          1             0        6.032968   -0.645282    0.000945
    9          1             0        7.250755    1.512025    0.000268
   10          1             0        3.540957    3.607549   -0.001703
   11          1             0        2.323226    1.468514   -0.001108
   12          7             0        6.237729    3.903224   -0.000928
   13          1             0        6.008289    4.460741   -0.818800
   14          1             0        6.003798    4.463590    0.813739
 --------------------------------------------------------------------
     1 basis functions        1 primitive gaussians
     1 alpha electrons        1 beta electrons
 
 Harmonic frequencies (cm**-1), IR intensities (KM/Mole),
 Raman scattering activities (A**4/amu), Raman depolarization ratios,
 reduced masses (AMU), force constants (mDyne/A) and normal coordinates:
                      1                      2                      3
                        a                      a                      a 
 Frequencies --  -328.8605               205.7264               360.9719
 Red. masses --    99.0000                99.0000                99.0000
 Frc consts  --    99.0000                99.0000                99.0000
 IR Inten    --    99.0000                99.0000                99.0000
 Raman Activ --     0.0000                 0.0000                 0.0000
 Depolar     --     0.0000                 0.0000                 0.0000
 Atom AN      X      Y      Z        X      Y      Z        X      Y      Z
   1   6    -0.00  -0.00   0.01     0.00  -0.00  -0.42     0.13  -0.07   0.00
   2   6    -0.00  -0.00   0.05     0.00   0.00   0.00     0.12   0.11  -0.00
   3   6    -0.00   0.00   0.08    -0.00   0.00   0.39    -0.21   0.25   0.00
   4   6    -0.00  -0.00   0.02    -0.00   0.00   0.26    -0.32   0.17   0.00
   5   6    -0.00  -0.00  -0.08    -0.00   0.00   0.40    -0.33   0.06  -0.00
   6   6    -0.00   0.00  -0.04     0.00  -0.00  -0.00    -0.03  -0.15   0.00
   7   1    -0.00   0.00  -0.00     0.00  -0.00  -0.28     0.07  -0.04   0.00
   8   1    -0.00  -0.00   0.01     0.00  -0.00  -0.03     0.09   0.06  -0.00
   9   1    -0.00   0.00   0.03    -0.00   0.00   0.15    -0.06   0.16   0.00
  10   1     0.00  -0.00  -0.05    -0.00   0.00   0.16    -0.16  -0.02  -0.00
  11   1    -0.00  -0.00  -0.02     0.00  -0.00  -0.03    -0.01  -0.11   0.00
  12   7     0.00   0.00  -0.19     0.00  -0.00  -0.47     0.47  -0.34   0.00
  13   1    -0.55   0.29   0.30    -0.08  -0.12  -0.18     0.28  -0.03  -0.00
  14   1     0.55  -0.29   0.30     0.08   0.12  -0.18     0.28  -0.03   0.00
                      4                      5                      6
                        a                      a                      a 
 Frequencies --   372.1162               451.3080               503.0381
 Red. masses --    99.0000                99.0000                99.0000
 Frc consts  --    99.0000                99.0000                99.0000
 IR Inten    --    99.0000                99.0000                99.0000
 Raman Activ --     0.0000                 0.0000                 0.0000
 Depolar     --     0.0000                 0.0000                 0.0000
 Atom AN      X      Y      Z        X      Y      Z        X      Y      Z
   1   6     0.00  -0.00  -0.00     0.00  -0.00  -0.39    -0.24  -0.42   0.00
   2   6    -0.00   0.00   0.43    -0.00   0.00   0.27    -0.26  -0.02  -0.00
   3   6    -0.00   0.00  -0.42    -0.00   0.00   0.06    -0.25   0.05  -0.00
   4   6    -0.00   0.00  -0.01     0.00  -0.00  -0.62     0.18   0.32  -0.00
   5   6    -0.00   0.00   0.42    -0.00   0.00   0.04     0.16  -0.19   0.00
   6   6     0.00  -0.00  -0.42    -0.00   0.00   0.28     0.11  -0.24   0.00
   7   1     0.00  -0.00   0.00     0.00  -0.00  -0.17    -0.07  -0.12   0.00
   8   1     0.00   0.00   0.27    -0.00   0.00   0.25     0.00   0.04  -0.00
   9   1     0.00   0.00  -0.26    -0.00   0.00   0.18    -0.07  -0.10  -0.00
  10   1    -0.00   0.00   0.27    -0.00   0.00   0.17    -0.05  -0.11   0.00
  11   1     0.00  -0.00  -0.26    -0.00   0.00   0.26     0.03   0.02  -0.00
  12   7     0.00  -0.00  -0.00     0.00  -0.00   0.10     0.27   0.46  -0.00
  13   1    -0.02   0.02   0.02     0.10   0.14   0.10     0.07   0.12  -0.00
  14   1     0.02  -0.02   0.02    -0.10  -0.14   0.10     0.07   0.12   0.00
                      7                      8                      9
                        a                      a                      a 
 Frequencies --   591.2452               651.5280               745.1603
 Red. masses --    99.0000                99.0000                99.0000
 Frc consts  --    99.0000                99.0000                99.0000
 IR Inten    --    99.0000                99.0000                99.0000
 Raman Activ --     0.0000                 0.0000                 0.0000
 Depolar     --     0.0000                 0.0000                 0.0000
 Atom AN      X      Y      Z        X      Y      Z        X      Y      Z
   1   6    -0.15   0.09  -0.00    -0.00   0.00   0.35    -0.00   0.00   0.15
   2   6    -0.11   0.48  -0.00     0.00  -0.00  -0.38     0.00   0.00   0.14
   3   6     0.40   0.16  -0.00    -0.00   0.00   0.35    -0.00   0.00   0.16
   4   6     0.13  -0.07   0.00     0.00  -0.00  -0.43     0.00  -0.00  -0.24
   5   6     0.06  -0.42   0.00    -0.00   0.00   0.34    -0.00   0.00   0.17
   6   6    -0.48  -0.15   0.00     0.00  -0.00  -0.38    -0.00   0.00   0.15
   7   1     0.10  -0.06   0.00    -0.00   0.00   0.21     0.00  -0.00  -0.47
   8   1    -0.08   0.11  -0.00     0.00  -0.00  -0.07     0.00  -0.00  -0.40
   9   1     0.11  -0.01   0.00    -0.00   0.00   0.22     0.00  -0.00  -0.33
  10   1     0.06  -0.09   0.00    -0.00   0.00   0.21     0.00  -0.00  -0.35
  11   1    -0.13   0.01   0.00     0.00  -0.00  -0.07     0.00  -0.00  -0.41
  12   7     0.10  -0.07   0.00    -0.00  -0.00  -0.03    -0.00  -0.00   0.00
  13   1     0.05  -0.01  -0.00     0.06   0.08   0.03     0.08   0.10   0.05
  14   1     0.05  -0.01   0.00    -0.06  -0.08   0.03    -0.08  -0.10   0.05
                     10                     11                     12
                        a                      a                      a 
 Frequencies --   822.6965               876.3094               897.9939
 Red. masses --    99.0000                99.0000                99.0000
 Frc consts  --    99.0000                99.0000                99.0000
 IR Inten    --    99.0000                99.0000                99.0000
 Raman Activ --     0.0000                 0.0000                 0.0000
 Depolar     --     0.0000                 0.0000                 0.0000
 Atom AN      X      Y      Z        X      Y      Z        X      Y      Z
   1   6    -0.15  -0.27   0.00     0.00  -0.00  -0.03    -0.00   0.00   0.34
   2   6    -0.21   0.41  -0.00     0.00  -0.00  -0.23    -0.00   0.00   0.00
   3   6    -0.05   0.23  -0.00     0.00  -0.00  -0.21     0.00  -0.00  -0.25
   4   6    -0.01  -0.01   0.00     0.00  -0.00   0.00    -0.00  -0.00   0.04
   5   6     0.23   0.07  -0.00    -0.00   0.00   0.25    -0.00  -0.00  -0.23
   6   6     0.46   0.03   0.00    -0.00   0.00   0.22    -0.00  -0.00   0.06
   7   1    -0.04  -0.07   0.00    -0.00   0.00   0.06     0.00  -0.00  -0.55
   8   1     0.05   0.18  -0.00    -0.00   0.00   0.45     0.00   0.00  -0.07
   9   1    -0.02   0.04  -0.00    -0.00   0.00   0.42    -0.00   0.00   0.48
  10   1     0.04   0.00   0.00     0.00  -0.00  -0.48    -0.00   0.00   0.44
  11   1     0.13   0.13  -0.00     0.00  -0.00  -0.41     0.00  -0.00  -0.18
  12   7    -0.25  -0.44   0.00    -0.00   0.00  -0.00     0.00   0.00   0.01
  13   1    -0.06  -0.11   0.00    -0.00   0.00   0.00    -0.04  -0.04  -0.02
  14   1    -0.06  -0.11  -0.00     0.00  -0.00   0.00     0.04   0.04  -0.02
                     13                     14                     15
                        a                      a                      a 
 Frequencies --   928.8348               931.3147               935.1531
 Red. masses --    99.0000                99.0000                99.0000
 Frc consts  --    99.0000                99.0000                99.0000
 IR Inten    --    99.0000                99.0000                99.0000
 Raman Activ --     0.0000                 0.0000                 0.0000
 Depolar     --     0.0000                 0.0000                 0.0000
 Atom AN      X      Y      Z        X      Y      Z        X      Y      Z
   1   6    -0.00   0.00  -0.11     0.00  -0.00  -0.23     0.02  -0.03  -0.00
   2   6     0.00  -0.00  -0.16    -0.00   0.00   0.31    -0.02   0.06  -0.00
   3   6     0.00  -0.00   0.23     0.00  -0.00  -0.16    -0.06   0.05   0.00
   4   6    -0.00   0.00  -0.02     0.00  -0.00  -0.05     0.02  -0.07  -0.00
   5   6     0.00  -0.00  -0.25    -0.00   0.00   0.04    -0.10   0.05  -0.00
   6   6    -0.00   0.00   0.33    -0.00   0.00   0.09    -0.04  -0.02   0.00
   7   1    -0.00   0.00   0.23    -0.00   0.00   0.47     0.03  -0.02   0.00
   8   1    -0.00  -0.00   0.21     0.00  -0.00  -0.61     0.03   0.04   0.00
   9   1     0.00  -0.00  -0.31    -0.00   0.00   0.38    -0.02   0.06  -0.00
  10   1     0.00   0.00   0.45    -0.00   0.00   0.06    -0.06  -0.00   0.00
  11   1     0.00  -0.00  -0.58     0.00  -0.00  -0.27    -0.01  -0.03  -0.00
  12   7    -0.00   0.00  -0.00     0.00  -0.00  -0.01     0.48  -0.01   0.00
  13   1     0.00   0.01   0.00     0.01   0.01   0.00    -0.59  -0.10   0.09
  14   1     0.00  -0.01   0.00    -0.01  -0.01   0.00    -0.59  -0.10  -0.10
                     16                     17                     18
                        a                      a                      a 
 Frequencies --   989.3284              1078.5744              1112.6530
 Red. masses --    99.0000                99.0000                99.0000
 Frc consts  --    99.0000                99.0000                99.0000
 IR Inten    --    99.0000                99.0000                99.0000
 Raman Activ --     0.0000                 0.0000                 0.0000
 Depolar     --     0.0000                 0.0000                 0.0000
 Atom AN      X      Y      Z        X      Y      Z        X      Y      Z
   1   6    -0.19  -0.33   0.00     0.25   0.37  -0.00     0.14  -0.16   0.00
   2   6    -0.11   0.08  -0.00    -0.27   0.25  -0.00    -0.01   0.13  -0.00
   3   6     0.57  -0.11   0.00    -0.11  -0.14  -0.00    -0.20  -0.08  -0.00
   4   6    -0.06  -0.12   0.00     0.02   0.00   0.00     0.14  -0.04   0.04
   5   6    -0.38   0.42  -0.00    -0.09  -0.11  -0.00    -0.02   0.27  -0.01
   6   6     0.13  -0.05   0.00     0.30  -0.12   0.00    -0.24   0.01  -0.00
   7   1    -0.06  -0.09   0.00     0.10   0.09  -0.00     0.34  -0.22   0.00
   8   1    -0.12  -0.04  -0.00    -0.28  -0.05  -0.00     0.28   0.21   0.00
   9   1     0.16  -0.10   0.00    -0.03  -0.44   0.00    -0.05  -0.45   0.01
  10   1    -0.16   0.08  -0.00    -0.24  -0.16   0.00     0.33   0.28   0.01
  11   1     0.03  -0.11   0.00     0.09  -0.34   0.00    -0.07  -0.18   0.00
  12   7     0.05   0.14  -0.00     0.01   0.01  -0.00    -0.05  -0.01  -0.03
  13   1     0.05   0.04  -0.00    -0.00   0.00  -0.00     0.06   0.04   0.00
  14   1     0.05   0.04   0.00    -0.00   0.00   0.00    -0.02  -0.06   0.03
                     19                     20                     21
                        a                      a                      a 
 Frequencies --  1113.3775              1187.7409              1179.7470
 Red. masses --    99.0000                99.0000                99.0000
 Frc consts  --    99.0000                99.0000                99.0000
 IR Inten    --    99.0000                99.0000                99.0000
 Raman Activ --     0.0000                 0.0000                 0.0000
 Depolar     --     0.0000                 0.0000                 0.0000
 Atom AN      X      Y      Z        X      Y      Z        X      Y      Z
   1   6    -0.01   0.02   0.01    -0.02   0.02  -0.00    -0.08   0.03  -0.00
   2   6     0.00  -0.01  -0.02    -0.14   0.04  -0.00     0.11  -0.02   0.00
   3   6     0.02   0.01  -0.04    -0.04   0.08  -0.00     0.07   0.07  -0.00
   4   6    -0.01   0.00   0.35    -0.01  -0.12   0.00     0.07   0.03  -0.00
   5   6     0.00  -0.03  -0.05     0.08   0.01  -0.00    -0.08  -0.09   0.00
   6   6     0.03  -0.00  -0.02     0.06  -0.13   0.00    -0.02   0.02  -0.00
   7   1    -0.04   0.02   0.01    -0.20   0.12  -0.00    -0.61   0.34  -0.00
   8   1    -0.03  -0.02   0.03    -0.17  -0.07  -0.00     0.49   0.26  -0.00
   9   1     0.01   0.05   0.05    -0.02   0.39  -0.00     0.03  -0.31   0.00
  10   1    -0.04  -0.03   0.05     0.46   0.26   0.00    -0.06  -0.05  -0.00
  11   1     0.01   0.02   0.03     0.02  -0.63   0.00    -0.01  -0.21   0.00
  12   7     0.01  -0.00  -0.32     0.03   0.07  -0.00    -0.00  -0.05   0.00
  13   1     0.37   0.46   0.14     0.02   0.01  -0.00    -0.01  -0.01   0.00
  14   1    -0.38  -0.46   0.14     0.02   0.01   0.00    -0.01  -0.01  -0.00
                     22                     23                     24
                        a                      a                      a 
 Frequencies --  1249.5736              1276.9464              1312.1120
 Red. masses --    99.0000                99.0000                99.0000
 Frc consts  --    99.0000                99.0000                99.0000
 IR Inten    --    99.0000                99.0000                99.0000
 Raman Activ --     0.0000                 0.0000                 0.0000
 Depolar     --     0.0000                 0.0000                 0.0000
 Atom AN      X      Y      Z        X      Y      Z        X      Y      Z
   1   6    -0.01  -0.11   0.00     0.08  -0.07   0.00     0.38  -0.20   0.00
   2   6     0.05  -0.23   0.00     0.19   0.02   0.00    -0.32  -0.15   0.00
   3   6     0.08   0.24  -0.00     0.05   0.15  -0.00    -0.03   0.39  -0.00
   4   6     0.39   0.52  -0.00    -0.32   0.19   0.00     0.30  -0.25  -0.00
   5   6     0.05   0.15  -0.00    -0.04  -0.09   0.00    -0.40  -0.23   0.00
   6   6    -0.22   0.03  -0.00     0.04  -0.17   0.00     0.04   0.34  -0.00
   7   1    -0.01  -0.03  -0.00    -0.22   0.12  -0.00    -0.05   0.04  -0.00
   8   1    -0.23  -0.21   0.00    -0.34  -0.23   0.00    -0.06  -0.03  -0.00
   9   1     0.04  -0.07   0.00     0.03  -0.43   0.00    -0.01  -0.01  -0.00
  10   1    -0.15  -0.04  -0.00     0.42   0.23   0.00     0.08   0.04   0.00
  11   1    -0.06  -0.28   0.00     0.01   0.31  -0.00     0.01   0.14  -0.00
  12   7    -0.16  -0.33   0.00     0.06  -0.04  -0.00     0.00   0.05   0.00
  13   1    -0.07  -0.09   0.00    -0.06   0.02   0.03     0.05  -0.02  -0.03
  14   1    -0.07  -0.09  -0.00    -0.06   0.02  -0.03     0.05  -0.02   0.03
                     25                     26                     27
                        a                      a                      a 
 Frequencies --  1433.6506              1478.4539              1529.6921
 Red. masses --    99.0000                99.0000                99.0000
 Frc consts  --    99.0000                99.0000                99.0000
 IR Inten    --    99.0000                99.0000                99.0000
 Raman Activ --     0.0000                 0.0000                 0.0000
 Depolar     --     0.0000                 0.0000                 0.0000
 Atom AN      X      Y      Z        X      Y      Z        X      Y      Z
   1   6    -0.27   0.13  -0.00    -0.10  -0.25   0.00     0.21  -0.13   0.00
   2   6    -0.13  -0.34   0.00     0.34   0.11   0.00    -0.09   0.07  -0.00
   3   6     0.24   0.20  -0.00    -0.15   0.26  -0.00    -0.01  -0.11   0.00
   4   6    -0.33   0.16  -0.00    -0.19  -0.40   0.00    -0.01  -0.01   0.00
   5   6     0.01  -0.29   0.00     0.31   0.03   0.00     0.10   0.04   0.00
   6   6     0.21   0.31  -0.00    -0.12   0.35  -0.00    -0.11   0.08  -0.00
   7   1     0.31  -0.18   0.00    -0.06  -0.06   0.00    -0.08   0.04  -0.00
   8   1     0.20   0.04   0.00    -0.21  -0.15   0.00    -0.03   0.02  -0.00
   9   1     0.08  -0.14   0.00    -0.04  -0.22   0.00    -0.01   0.05  -0.00
  10   1     0.14  -0.01  -0.00    -0.21  -0.17   0.00    -0.05  -0.03   0.00
  11   1     0.06  -0.23   0.00    -0.03  -0.25   0.00    -0.03  -0.01   0.00
  12   7     0.06  -0.06   0.00     0.05   0.13  -0.00    -0.02  -0.24   0.00
  13   1    -0.04   0.10   0.08     0.03  -0.00  -0.02    -0.03   0.52   0.36
  14   1    -0.04   0.10  -0.08     0.03  -0.00   0.02    -0.03   0.52  -0.36
                     28                     29                     30
                        a                      a                      a 
 Frequencies --  1589.6273              1603.0921              3054.6300
 Red. masses --    99.0000                99.0000                99.0000
 Frc consts  --    99.0000                99.0000                99.0000
 IR Inten    --    99.0000                99.0000                99.0000
 Raman Activ --     0.0000                 0.0000                 0.0000
 Depolar     --     0.0000                 0.0000                 0.0000
 Atom AN      X      Y      Z        X      Y      Z        X      Y      Z
   1   6    -0.47   0.19  -0.00    -0.02   0.24  -0.00    -0.00   0.01  -0.00
   2   6     0.41   0.06   0.00    -0.22  -0.30   0.00     0.00   0.00  -0.00
   3   6    -0.20   0.11  -0.00     0.04   0.50  -0.00     0.00   0.00  -0.00
   4   6     0.42  -0.17   0.00    -0.00  -0.32   0.00    -0.00  -0.01   0.00
   5   6    -0.37  -0.08  -0.00     0.23   0.31  -0.00     0.13  -0.22   0.00
   6   6     0.21  -0.10   0.00    -0.05  -0.49   0.00    -0.07  -0.00  -0.00
   7   1     0.09  -0.07   0.00     0.05   0.03  -0.00    -0.01  -0.03   0.00
   8   1    -0.06  -0.08   0.00     0.08   0.00   0.00     0.00  -0.00   0.00
   9   1    -0.05  -0.03  -0.00     0.02  -0.11   0.00    -0.02  -0.00  -0.00
  10   1     0.07   0.07  -0.00    -0.10  -0.01  -0.00    -0.47   0.79  -0.00
  11   1     0.05   0.02  -0.00    -0.01   0.11  -0.00     0.29   0.00   0.00
  12   7    -0.03  -0.07   0.00    -0.00   0.01   0.00    -0.00   0.00   0.00
  13   1     0.01   0.16   0.11     0.02   0.07   0.04     0.00  -0.00   0.00
  14   1     0.01   0.16  -0.11     0.02   0.07  -0.04     0.00  -0.00  -0.00
                     31                     32                     33
                        a                      a                      a 
 Frequencies --  3072.8161              3077.1433              3089.7207
 Red. masses --    99.0000                99.0000                99.0000
 Frc consts  --    99.0000                99.0000                99.0000
 IR Inten    --    99.0000                99.0000                99.0000
 Raman Activ --     0.0000                 0.0000                 0.0000
 Depolar     --     0.0000                 0.0000                 0.0000
 Atom AN      X      Y      Z        X      Y      Z        X      Y      Z
   1   6    -0.08  -0.13   0.00     0.01   0.02  -0.00     0.11   0.19  -0.00
   2   6    -0.06   0.10  -0.00     0.10  -0.18   0.00    -0.06   0.10  -0.00
   3   6     0.02   0.00   0.00    -0.04  -0.00  -0.00     0.05  -0.00   0.00
   4   6    -0.00  -0.00   0.00    -0.01  -0.00  -0.00     0.00  -0.00  -0.00
   5   6     0.03  -0.05   0.00     0.03  -0.05   0.00     0.01  -0.03   0.00
   6   6     0.17  -0.00   0.00     0.17   0.00   0.00     0.12  -0.00   0.00
   7   1     0.29   0.50  -0.00    -0.05  -0.08   0.00    -0.37  -0.66   0.00
   8   1     0.22  -0.37   0.00    -0.37   0.63  -0.00     0.20  -0.33   0.00
   9   1    -0.07  -0.00  -0.00     0.15   0.00   0.00    -0.20  -0.00  -0.00
  10   1    -0.10   0.17  -0.00    -0.09   0.15  -0.00    -0.04   0.08  -0.00
  11   1    -0.60  -0.00  -0.00    -0.57  -0.00  -0.00    -0.39  -0.00  -0.00
  12   7     0.00   0.00   0.00     0.00   0.00   0.00     0.00   0.00   0.00
  13   1     0.00   0.00   0.00     0.00   0.00  -0.00    -0.00  -0.00   0.00
  14   1     0.00   0.00  -0.00     0.00   0.00   0.00    -0.00  -0.00  -0.00
                     34                     35                     36
                        a                      a                      a 
 Frequencies --  3104.6279              3382.2375              3367.8588
 Red. masses --    99.0000                99.0000                99.0000
 Frc consts  --    99.0000                99.0000                99.0000
 IR Inten    --    99.0000                99.0000                99.0000
 Raman Activ --     0.0000                 0.0000                 0.0000
 Depolar     --     0.0000                 0.0000                 0.0000
 Atom AN      X      Y      Z        X      Y      Z        X      Y      Z
   1   6     0.02   0.03  -0.00     0.00   0.00   0.00    -0.00   0.00  -0.00
   2   6    -0.04   0.07  -0.00    -0.00  -0.00   0.00     0.00   0.00   0.00
   3   6    -0.27  -0.01  -0.00     0.00  -0.00  -0.00    -0.00   0.00  -0.00
   4   6    -0.01  -0.01   0.00     0.00   0.00  -0.00     0.00  -0.01   0.00
   5   6     0.01  -0.00   0.00    -0.00  -0.00   0.00     0.00   0.00   0.00
   6   6     0.01  -0.00   0.00    -0.00  -0.00   0.00    -0.00  -0.00  -0.00
   7   1    -0.05  -0.09   0.00    -0.00  -0.00  -0.00    -0.00  -0.00  -0.00
   8   1     0.12  -0.20   0.00    -0.00  -0.00  -0.00     0.00  -0.00  -0.00
   9   1     0.93   0.02   0.00    -0.00   0.00  -0.00    -0.00   0.00  -0.00
  10   1    -0.01   0.02  -0.00    -0.00   0.00  -0.00    -0.00   0.00  -0.00
  11   1    -0.04   0.00  -0.00    -0.00  -0.00   0.00     0.00   0.00   0.00
  12   7     0.00   0.00  -0.00     0.00  -0.00  -0.29     0.06  -0.18  -0.00
  13   1    -0.00   0.00  -0.00     0.14  -0.38   0.54    -0.12   0.35  -0.58
  14   1    -0.00   0.00   0.00    -0.15   0.38   0.54    -0.13   0.36   0.58
